/*--------------------------------*- C++ -*----------------------------------*\
| =========                 |                                                 |
| \\      /  F ield         | OpenFOAM: The Open Source CFD Toolbox           |
|  \\    /   O peration     | Version:  v1706                                 |
|   \\  /    A nd           | Web:      www.OpenFOAM.com                      |
|    \\/     M anipulation  |                                                 |
\*---------------------------------------------------------------------------*/
FoamFile
{
    version     2.0;
    format      ascii;
    class       volScalarField;
    location    "3.989";
    object      dsmcNMean_O2;
}
// * * * * * * * * * * * * * * * * * * * * * * * * * * * * * * * * * * * * * //

dimensions      [0 0 0 0 0 0 0];


internalField   nonuniform List<scalar> 
50792
(
0.0001475409836
0.001070257611
0.001995316159
0.0005550351288
0.0006370023419
0.0008477751756
0.00062529274
0.001210772834
0.001290398126
0.00106088993
0.001807962529
0.001489461358
0.002175644028
0.001850117096
0.001526932084
0.002618266979
0.001983606557
0.002156908665
0.001840749415
0.002046838407
0.002140515222
0.002086651054
0.002304449649
0.002299765808
0.002285714286
0.002201405152
0.004362997658
0.003110070258
0.002721311475
0.002932084309
0.003292740047
0.002409836066
0.002234192037
0.002227166276
0.003386416862
0.002459016393
0.002451990632
0.002557377049
0.00243559719
0.002426229508
0.002653395785
0.002653395785
0.0008805620609
0.0002224824356
0.0002646370023
0.0003442622951
0.0004402810304
0.0005971896956
0.001117096019
0.001817330211
0.001086651054
0.001784543326
0.001451990632
0.001932084309
0.0018735363
0.00156440281
0.00162295082
0.001995316159
0.001517564403
0.002046838407
0.001953161593
0.002428571429
0.00256206089
0.002976580796
0.002925058548
0.002098360656
0.00193676815
0.00144028103
0.001880562061
0.001859484778
0.0018735363
0.002615925059
0.002128805621
0.003110070258
0.002339578454
0.001896955504
0.002344262295
0.002402810304
0.002194379391
0.00337704918
0.002941451991
0.002316159251
0.002067915691
0.002014051522
2.107728337e-05
0.0001147540984
0.0002599531616
0.000281030445
0.0003536299766
0.0004285714286
0.001918032787
0.0007517564403
0.0007681498829
0.001459016393
0.0008969555035
0.001021077283
0.001309133489
0.001325526932
0.001585480094
0.001337236534
0.001505854801
0.0022529274
0.001836065574
0.001789227166
0.002156908665
0.002351288056
0.002035128806
0.002451990632
0.002074941452
0.002081967213
0.002398126464
0.002606557377
0.002419203747
0.002103044496
0.002405152225
0.004025761124
0.002536299766
0.002213114754
0.002911007026
0.002201405152
0.001990632319
0.001957845433
0.002416861827
0.002025761124
0.003049180328
0.002651053864
0.0001662763466
0.0001170960187
0.0002177985948
0.0003114754098
0.0003817330211
0.0005503512881
0.000662763466
0.0006932084309
0.001213114754
0.0009086651054
0.001454332553
0.001850117096
0.001056206089
0.001231850117
0.001358313817
0.001271662763
0.002648711944
0.001578454333
0.002166276347
0.003128805621
0.002793911007
0.002861826698
0.001772833724
0.00206323185
0.001742388759
0.00156440281
0.002098360656
0.00256440281
0.002241217799
0.002182669789
0.00287587822
0.002866510539
0.003023419204
0.001964871194
0.002067915691
0.001793911007
0.001918032787
0.00193442623
0.002833723653
0.00274941452
0.002327868852
0.001772833724
0.0003138173302
0.0001850117096
0.0006580796253
0.0008735362998
0.0008407494145
0.0007423887588
0.001444964871
0.0009508196721
0.001690866511
0.00106088993
0.001716627635
0.001224824356
0.001484777518
0.001503512881
0.001297423888
0.001566744731
0.002117096019
0.001386416862
0.001613583138
0.001918032787
0.001730679157
0.002585480094
0.002758782201
0.002487119438
0.002159250585
0.003259953162
0.00274941452
0.001819672131
0.00237236534
0.00318735363
0.002829039813
0.002880562061
0.002943793911
0.002018735363
0.002484777518
0.001707259953
0.002088992974
0.002175644028
0.002597189696
0.002283372365
0.002423887588
0.002262295082
8.899297424e-05
0.0001709601874
0.0002833723653
0.0003419203747
0.0008641686183
0.0005386416862
0.0007213114754
0.00143793911
0.001468384075
0.00106557377
0.001086651054
0.00143559719
0.0009836065574
0.001309133489
0.001334894614
0.00156206089
0.001236533958
0.00124824356
0.001456674473
0.001962529274
0.001672131148
0.003093676815
0.002147540984
0.002681498829
0.00168618267
0.001850117096
0.002077283372
0.002770491803
0.002941451991
0.002220140515
0.002180327869
0.002461358314
0.003067915691
0.002533957845
0.002416861827
0.001988290398
0.001737704918
0.002093676815
0.002004683841
0.002583138173
0.002941451991
0.001728337237
0.0005714285714
5.386416862e-05
5.854800937e-05
0.0001990632319
0.0002763466042
0.0005035128806
0.0008243559719
0.0004473067916
0.0008805620609
0.0009461358314
0.001035128806
0.001086651054
0.001484777518
0.001049180328
0.001152224824
0.001203747073
0.001779859485
0.001978922717
0.002318501171
0.002676814988
0.00287587822
0.001906323185
0.001943793911
0.001892271663
0.002302107728
0.002370023419
0.003138173302
0.002918032787
0.00249882904
0.002067915691
0.002077283372
0.001494145199
0.002117096019
0.001580796253
0.001725995316
0.001798594848
0.002487119438
0.002426229508
0.002365339578
0.002768149883
0.003166276347
0.002473067916
4.449648712e-05
0.0001451990632
0.0003606557377
0.0005526932084
0.000681498829
0.001044496487
0.0009953161593
0.001224824356
0.001096018735
0.001566744731
0.001482435597
0.001334894614
0.001536299766
0.001651053864
0.002030444965
0.002255269321
0.002081967213
0.002018735363
0.002416861827
0.00237236534
0.002707259953
0.002922716628
0.002615925059
0.002447306792
0.002391100703
0.003819672131
0.002906323185
0.002398126464
0.001922716628
0.002473067916
0.002683840749
0.002489461358
0.002114754098
0.002648711944
0.002154566745
0.001882903981
0.002222482436
0.00212412178
0.002576112412
0.001990632319
0.00244028103
0.002608899297
7.259953162e-05
0.0002669789227
0.0005526932084
0.0003911007026
0.0004824355972
0.0005058548009
0.0007096018735
0.001402810304
0.001077283372
0.001496487119
0.001276346604
0.001557377049
0.001459016393
0.001573770492
0.002
0.001681498829
0.0017470726
0.001770491803
0.002049180328
0.00237470726
0.001927400468
0.003224824356
0.002217798595
0.002786885246
0.002107728337
0.001805620609
0.002009367681
0.002269320843
0.002510538642
0.003362997658
0.005903981265
0.003639344262
0.003215456674
0.002683840749
0.002583138173
0.003283372365
0.002761124122
0.003540983607
0.002735362998
0.002011709602
0.003192037471
0.001953161593
0.000168618267
0.0001592505855
0.0005480093677
0.0003325526932
0.0005456674473
0.0008594847775
0.00118735363
0.0009086651054
0.0009227166276
0.001295081967
0.001320843091
0.001580796253
0.001381733021
0.001299765808
0.0017470726
0.001081967213
0.001346604215
0.001128805621
0.001538641686
0.001669789227
0.002107728337
0.002154566745
0.001552693208
0.002243559719
0.001679156909
0.001683840749
0.002037470726
0.002004683841
0.002566744731
0.004096018735
0.001637002342
0.001941451991
0.001334894614
0.003098360656
0.001744730679
0.001761124122
0.001658079625
0.002128805621
0.002358313817
0.002168618267
0.002594847775
0.001892271663
0.0002037470726
5.386416862e-05
0.0003512880562
0.0001170960187
0.0002693208431
0.0004332552693
0.0006159250585
0.0009414519906
0.001807962529
0.001201405152
0.00137704918
0.001051522248
0.001822014052
0.001522248244
0.002552693208
0.001646370023
0.002103044496
0.001651053864
0.001637002342
0.001590163934
0.001491803279
0.00237704918
0.00237470726
0.002074941452
0.001512880562
0.001772833724
0.00181264637
0.002081967213
0.002475409836
0.002487119438
0.001988290398
0.001969555035
0.002046838407
0.002009367681
0.002669789227
0.0018735363
0.001580796253
0.002159250585
0.002639344262
0.001775175644
0.001925058548
0.00144028103
0.0001405152225
0.0005644028103
0.0004215456674
0.0004379391101
0.0005995316159
0.000681498829
0.0009508196721
0.001009367681
0.001119437939
0.001274004684
0.001583138173
0.002173302108
0.00199765808
0.002861826698
0.001988290398
0.001580796253
0.001796252927
0.002297423888
0.002484777518
0.002524590164
0.002704918033
0.002173302108
0.002257611241
0.002590163934
0.002348946136
0.002885245902
0.002566744731
0.003316159251
0.002414519906
0.003016393443
0.002838407494
0.002829039813
0.003039812646
0.002590163934
0.002384074941
0.002526932084
0.002843091335
0.002843091335
0.002494145199
0.002854800937
0.002477751756
0.002266978923
0.001161592506
0.0004871194379
0.0003770491803
0.0005081967213
0.0006276346604
0.0008454332553
0.002030444965
0.0009906323185
0.001098360656
0.001484777518
0.001215456674
0.001206088993
0.001398126464
0.001353629977
0.00187587822
0.001470725995
0.001716627635
0.002018735363
0.003044496487
0.003400468384
0.002901639344
0.002974238876
0.003461358314
0.002531615925
0.002480093677
0.002414519906
0.003168618267
0.002906323185
0.002648711944
0.003119437939
0.003344262295
0.003409836066
0.004182669789
0.003932084309
0.003800936768
0.003690866511
0.003519906323
0.003021077283
0.002414519906
0.002903981265
0.002140515222
0.002241217799
0.001784543326
0.001281030445
0.0005128805621
0.0006791569087
0.0007868852459
0.0008430913349
0.001470725995
0.001948477752
0.002257611241
0.0009274004684
0.001379391101
0.001665105386
0.001049180328
0.00149882904
0.001386416862
0.002154566745
0.001529274005
0.001969555035
0.002791569087
0.002199063232
0.001894613583
0.00225058548
0.003651053864
0.002529274005
0.001896955504
0.002962529274
0.002920374707
0.002695550351
0.003620608899
0.002985948478
0.003140515222
0.003651053864
0.003932084309
0.002402810304
0.003114754098
0.003833723653
0.003990632319
0.004236533958
0.004018735363
0.003210772834
0.002653395785
0.001882903981
0.002304449649
0.0003817330211
0.0006042154567
0.0006229508197
0.0007494145199
0.0009648711944
0.001318501171
0.002100702576
0.001009367681
0.001138173302
0.001199063232
0.001140515222
0.001142857143
0.001725995316
0.001344262295
0.001505854801
0.001344262295
0.001658079625
0.001990632319
0.001704918033
0.00144028103
0.002145199063
0.002697892272
0.003316159251
0.002702576112
0.003199063232
0.002367681499
0.002496487119
0.002681498829
0.002391100703
0.002192037471
0.002608899297
0.004128805621
0.003587822014
0.004133489461
0.002690866511
0.002789227166
0.002829039813
0.002868852459
0.00293442623
0.002370023419
0.00193911007
0.0003911007026
0.0002037470726
0.0003044496487
0.0003302107728
0.0005035128806
0.0007447306792
0.000756440281
0.0008805620609
0.001030444965
0.001299765808
0.001304449649
0.001419203747
0.001290398126
0.001854800937
0.001850117096
0.002400468384
0.001566744731
0.002224824356
0.002016393443
0.00318735363
0.002215456674
0.002882903981
0.002489461358
0.003339578454
0.002269320843
0.002093676815
0.002487119438
0.00249882904
0.00237236534
0.002550351288
0.001742388759
0.001805620609
0.002213114754
0.002709601874
0.001859484778
0.002257611241
0.002585480094
0.001803278689
0.002700234192
0.002515222482
0.002447306792
0.002196721311
0.0003114754098
0.0001217798595
0.000206088993
0.0003864168618
0.0005807962529
0.0007868852459
0.001152224824
0.001224824356
0.001480093677
0.002159250585
0.001444964871
0.001473067916
0.00155971897
0.001920374707
0.002927400468
0.002210772834
0.00243559719
0.002238875878
0.002929742389
0.002386416862
0.001843091335
0.002297423888
0.002269320843
0.003016393443
0.003081967213
0.002379391101
0.003170960187
0.003072599532
0.003384074941
0.002676814988
0.002526932084
0.00274941452
0.002967213115
0.002906323185
0.002259953162
0.002908665105
0.002473067916
0.002644028103
0.00306557377
0.003601873536
0.003007025761
0.002091334895
0.0007681498829
0.0001639344262
0.0003911007026
0.0005807962529
0.0006533957845
0.001014051522
0.0007634660422
0.0008922716628
0.001430913349
0.001098360656
0.001339578454
0.001475409836
0.001618266979
0.001447306792
0.001297423888
0.002355971897
0.001920374707
0.002531615925
0.002306791569
0.001784543326
0.001585480094
0.00206323185
0.002023419204
0.00231147541
0.003009367681
0.002231850117
0.003051522248
0.001911007026
0.002831381733
0.001978922717
0.002332552693
0.002407494145
0.00162295082
0.001662763466
0.002051522248
0.002772833724
0.003163934426
0.001651053864
0.001700234192
0.003585480094
0.002360655738
0.001744730679
0.0004238875878
0.0002786885246
0.0003138173302
0.0005503512881
0.0004777517564
0.0008220140515
0.001508196721
0.0009203747073
0.0009414519906
0.001238875878
0.001674473068
0.001728337237
0.00275175644
0.002510538642
0.001733021077
0.001866510539
0.002669789227
0.003194379391
0.002807962529
0.002306791569
0.002433255269
0.002304449649
0.003058548009
0.003644028103
0.002864168618
0.001906323185
0.002571428571
0.002416861827
0.002648711944
0.002892271663
0.003142857143
0.003177985948
0.002334894614
0.002072599532
0.002103044496
0.002131147541
0.002241217799
0.00200234192
0.001763466042
0.002381733021
0.002103044496
0.001648711944
4.449648712e-05
0.00018735363
0.0003817330211
0.0008641686183
0.000831381733
0.001274004684
0.001454332553
0.001222482436
0.001351288056
0.002140515222
0.001695550351
0.001482435597
0.00162763466
0.00187587822
0.001887587822
0.002138173302
0.002014051522
0.002344262295
0.002199063232
0.003163934426
0.002269320843
0.001985948478
0.002782201405
0.003112412178
0.001847775176
0.001505854801
0.001676814988
0.002723653396
0.002079625293
0.002128805621
0.002571428571
0.001885245902
0.002405152225
0.002018735363
0.001955503513
0.001981264637
0.002180327869
0.002505854801
0.002327868852
0.002053864169
0.002121779859
0.002070257611
0.0008618266979
0.000281030445
0.0006674473068
0.0005175644028
0.001515222482
0.0009765807963
0.0009555035129
0.001131147541
0.001348946136
0.001297423888
0.001461358314
0.001831381733
0.001733021077
0.001779859485
0.001796252927
0.00268852459
0.002196721311
0.002733021077
0.002882903981
0.003241217799
0.002578454333
0.002704918033
0.002901639344
0.001903981265
0.003098360656
0.002583138173
0.002576112412
0.002288056206
0.002978922717
0.00268618267
0.003018735363
0.002419203747
0.002170960187
0.001894613583
0.00193676815
0.002412177986
0.001730679157
0.002208430913
0.001716627635
0.001829039813
0.00262295082
0.002149882904
0.0002341920375
0.0001475409836
0.001276346604
0.0003489461358
0.0007470725995
0.001299765808
0.001121779859
0.0007283372365
0.001030444965
0.001318501171
0.00137236534
0.001161592506
0.001229508197
0.001229508197
0.001512880562
0.001548009368
0.001845433255
0.002409836066
0.001791569087
0.002351288056
0.001391100703
0.001421545667
0.001992974239
0.003880562061
0.001683840749
0.002274004684
0.002180327869
0.002714285714
0.00268618267
0.002053864169
0.002711943794
0.003056206089
0.003730679157
0.004070257611
0.002803278689
0.003025761124
0.002180327869
0.001723653396
0.001838407494
0.001716627635
0.001772833724
0.001325526932
5.620608899e-05
2.576112412e-05
0.0001639344262
0.0002716627635
0.0009133489461
0.0007119437939
0.0008009367681
0.001423887588
0.001269320843
0.001264637002
0.002042154567
0.001405152225
0.001674473068
0.001648711944
0.001932084309
0.001449648712
0.001538641686
0.00206557377
0.001953161593
0.001421545667
0.001704918033
0.002725995316
0.003009367681
0.003149882904
0.00262529274
0.00231147541
0.001983606557
0.002466042155
0.001903981265
0.001850117096
0.00293442623
0.003824355972
0.003908665105
0.003489461358
0.003920374707
0.002388758782
0.002976580796
0.002442622951
0.002976580796
0.00168618267
0.002140515222
0.001943793911
0.001077283372
0.0003114754098
0.0006042154567
0.001025761124
0.0005925058548
0.0006206088993
0.0007775175644
0.0008758782201
0.001536299766
0.001112412178
0.001360655738
0.001779859485
0.001522248244
0.001857142857
0.00218735363
0.001281030445
0.00131147541
0.002840749415
0.001805620609
0.001985948478
0.001798594848
0.001761124122
0.001943793911
0.001641686183
0.002180327869
0.00306323185
0.002817330211
0.001840749415
0.001725995316
0.002042154567
0.001978922717
0.003032786885
0.003213114754
0.003515222482
0.00206088993
0.001754098361
0.002295081967
0.002735362998
0.002550351288
0.002224824356
0.002341920375
0.001466042155
0.001419203747
0.0004098360656
0.0005245901639
0.0003676814988
0.0005784543326
0.0006510538642
0.0007470725995
0.001224824356
0.001419203747
0.001084309133
0.001220140515
0.001096018735
0.001646370023
0.002051522248
0.001840749415
0.001480093677
0.00237236534
0.002042154567
0.001885245902
0.00193442623
0.001896955504
0.002545667447
0.002266978923
0.001892271663
0.002304449649
0.002590163934
0.002826697892
0.002461358314
0.002761124122
0.001709601874
0.002974238876
0.002412177986
0.001634660422
0.002967213115
0.002325526932
0.002269320843
0.001693208431
0.001845433255
0.00200234192
0.002217798595
0.001985948478
0.001737704918
0.002135831382
0.0003793911007
0.0002576112412
0.0002786885246
0.0003255269321
0.0003957845433
0.001391100703
0.0007915690867
0.001213114754
0.000831381733
0.0009555035129
0.001339578454
0.001803278689
0.002442622951
0.002245901639
0.001955503513
0.003388758782
0.001840749415
0.001772833724
0.001733021077
0.002206088993
0.001725995316
0.002484777518
0.00187587822
0.001775175644
0.002494145199
0.002826697892
0.00306557377
0.002081967213
0.00218735363
0.002782201405
0.001735362998
0.001918032787
0.001932084309
0.003070257611
0.002880562061
0.001817330211
0.001971896956
0.001899297424
0.002341920375
0.00212412178
0.001796252927
0.0007587822014
0.0002037470726
0.0002740046838
0.0005035128806
0.000681498829
0.0008079625293
0.0008758782201
0.000850117096
0.001110070258
0.001262295082
0.001981264637
0.00162295082
0.001957845433
0.002156908665
0.002058548009
0.001843091335
0.001978922717
0.001903981265
0.001522248244
0.00174941452
0.001962529274
0.001592505855
0.001407494145
0.001370023419
0.001416861827
0.001866510539
0.002079625293
0.001728337237
0.001995316159
0.003177985948
0.003056206089
0.002911007026
0.003255269321
0.003072599532
0.002768149883
0.003042154567
0.002149882904
0.003107728337
0.001353629977
0.001742388759
0.001711943794
0.001889929742
0.0005433255269
6.323185012e-05
0.0002224824356
0.0005386416862
0.0007236533958
0.000962529274
0.001032786885
0.001119437939
0.00131381733
0.001484777518
0.001740046838
0.002011709602
0.002325526932
0.00237236534
0.001915690867
0.001847775176
0.001859484778
0.001845433255
0.001976580796
0.00200234192
0.002412177986
0.002524590164
0.002922716628
0.002051522248
0.002667447307
0.002974238876
0.004138173302
0.00356440281
0.003517564403
0.003557377049
0.002566744731
0.002641686183
0.002072599532
0.00368618267
0.002276346604
0.003327868852
0.002505854801
0.002180327869
0.002489461358
0.00243793911
0.0018735363
0.001833723653
0.001775175644
0.00037470726
0.0004519906323
0.0006229508197
0.0007330210773
0.0007587822014
0.0009203747073
0.001100702576
0.001332552693
0.00124824356
0.001231850117
0.001409836066
0.002402810304
0.001594847775
0.001531615925
0.002309133489
0.001854800937
0.001587822014
0.002238875878
0.002234192037
0.001847775176
0.001639344262
0.001611241218
0.002683840749
0.00243793911
0.002683840749
0.002950819672
0.002983606557
0.002693208431
0.002135831382
0.002079625293
0.003100702576
0.001988290398
0.001990632319
0.001765807963
0.002442622951
0.002676814988
0.002615925059
0.002943793911
0.004046838407
0.003037470726
0.002526932084
0.0009180327869
0.0009156908665
0.001173302108
0.0008337236534
0.0008922716628
0.001093676815
0.001683840749
0.001470725995
0.00131147541
0.001147540984
0.001037470726
0.001306791569
0.00181264637
0.001669789227
0.001943793911
0.001843091335
0.002550351288
0.001918032787
0.002353629977
0.001974238876
0.00162529274
0.002030444965
0.001878220141
0.002646370023
0.002871194379
0.003669789227
0.001941451991
0.001723653396
0.001718969555
0.001716627635
0.001995316159
0.001964871194
0.002487119438
0.002665105386
0.00231147541
0.001697892272
0.001983606557
0.00206323185
0.002032786885
0.002918032787
0.001295081967
0.001402810304
0.001166276347
0.0006182669789
0.0003278688525
0.0003981264637
0.0004800936768
0.0006463700234
0.001236533958
0.001451990632
0.001868852459
0.001339578454
0.001444964871
0.001665105386
0.001615925059
0.001733021077
0.001824355972
0.001882903981
0.002028103044
0.00149882904
0.001494145199
0.00162529274
0.00168618267
0.002276346604
0.002142857143
0.002278688525
0.003569086651
0.003224824356
0.003264637002
0.002281030445
0.002379391101
0.002327868852
0.003634660422
0.001822014052
0.00187587822
0.002838407494
0.003241217799
0.001992974239
0.002238875878
0.002419203747
0.004044496487
0.00300234192
0.002494145199
0.002086651054
0.001704918033
0.0009156908665
0.00037470726
0.0003864168618
0.0004285714286
0.0006838407494
0.000700234192
0.0008220140515
0.0006674473068
0.001028103044
0.001341920375
0.001426229508
0.0008243559719
0.00106088993
0.001887587822
0.002295081967
0.001117096019
0.001234192037
0.001451990632
0.00156440281
0.00206557377
0.001742388759
0.002608899297
0.002948477752
0.002107728337
0.002402810304
0.002180327869
0.003107728337
0.001683840749
0.002201405152
0.002264637002
0.002295081967
0.002320843091
0.002707259953
0.001707259953
0.001925058548
0.002234192037
0.002702576112
0.002281030445
0.002618266979
0.00181498829
0.002119437939
0.0004543325527
0.0002482435597
0.0008360655738
0.0004754098361
0.0004449648712
0.000775175644
0.0005667447307
0.0006135831382
0.0007775175644
0.001957845433
0.001793911007
0.00149882904
0.001466042155
0.00162529274
0.001838407494
0.001566744731
0.001468384075
0.001843091335
0.001833723653
0.002234192037
0.002538641686
0.002555035129
0.003463700234
0.002782201405
0.002473067916
0.00162529274
0.001721311475
0.002163934426
0.002693208431
0.002365339578
0.0021264637
0.00293442623
0.003051522248
0.002470725995
0.002697892272
0.003154566745
0.004074941452
0.003489461358
0.003079625293
0.002569086651
0.003084309133
0.002866510539
0.0007494145199
9.601873536e-05
0.0005948477752
0.0001943793911
0.0004543325527
0.0004590163934
0.0005011709602
0.001046838407
0.001524590164
0.001491803279
0.001381733021
0.001632318501
0.001777517564
0.0018735363
0.001789227166
0.001723653396
0.001700234192
0.003170960187
0.002295081967
0.00231147541
0.001967213115
0.001882903981
0.002585480094
0.002274004684
0.002117096019
0.002669789227
0.002433255269
0.002395784543
0.003117096019
0.002112412178
0.002192037471
0.002241217799
0.003103044496
0.002475409836
0.002601873536
0.002679156909
0.00268618267
0.004475409836
0.003245901639
0.002932084309
0.002604215457
0.002323185012
0.0001779859485
0.0002271662763
0.0009414519906
0.0005597189696
0.0007517564403
0.0006651053864
0.001086651054
0.001290398126
0.001231850117
0.001697892272
0.001271662763
0.00137704918
0.00144028103
0.001466042155
0.001702576112
0.001950819672
0.00137470726
0.001800936768
0.001587822014
0.001370023419
0.001480093677
0.001793911007
0.002007025761
0.001461358314
0.001590163934
0.001786885246
0.001590163934
0.00162763466
0.001428571429
0.002503512881
0.00162763466
0.002114754098
0.00193676815
0.001911007026
0.001355971897
0.001826697892
0.002882903981
0.003850117096
0.002288056206
0.002044496487
0.002974238876
0.002177985948
0.0002224824356
0.0001077283372
0.0002412177986
0.0004402810304
0.0003840749415
0.0004824355972
0.0005807962529
0.0006861826698
0.0009742388759
0.001658079625
0.001744730679
0.002173302108
0.001711943794
0.001583138173
0.001829039813
0.001967213115
0.002014051522
0.002395784543
0.001800936768
0.002236533958
0.002093676815
0.001850117096
0.001700234192
0.001723653396
0.001735362998
0.001672131148
0.001990632319
0.001536299766
0.002112412178
0.002981264637
0.002442622951
0.00256440281
0.002756440281
0.003337236534
0.002711943794
0.002203747073
0.002110070258
0.002414519906
0.003524590164
0.0031264637
0.003339578454
0.002641686183
0.0005292740047
8.899297424e-05
0.0003676814988
0.0006768149883
0.0007985948478
0.0008665105386
0.00106323185
0.00106323185
0.001665105386
0.001323185012
0.001829039813
0.002505854801
0.001955503513
0.001927400468
0.001943793911
0.001829039813
0.002046838407
0.002461358314
0.002768149883
0.001777517564
0.001878220141
0.002138173302
0.002011709602
0.002576112412
0.003140515222
0.002255269321
0.002269320843
0.00281264637
0.002976580796
0.003381733021
0.002393442623
0.003227166276
0.002665105386
0.00237704918
0.003215456674
0.003733021077
0.003227166276
0.002829039813
0.002852459016
0.002351288056
0.002269320843
0.002067915691
0.00168618267
0.000281030445
0.0003442622951
0.0004847775176
0.0004824355972
0.000831381733
0.0005714285714
0.0006791569087
0.001105386417
0.001208430913
0.001606557377
0.001569086651
0.0009929742389
0.001180327869
0.001077283372
0.0009789227166
0.001693208431
0.001405152225
0.002433255269
0.001896955504
0.001967213115
0.003035128806
0.002442622951
0.002859484778
0.002234192037
0.002660421546
0.003510538642
0.002201405152
0.002182669789
0.003039812646
0.002833723653
0.002969555035
0.002676814988
0.003660421546
0.003976580796
0.003552693208
0.00206088993
0.001974238876
0.002592505855
0.002103044496
0.001878220141
0.001629976581
0.0001358313817
5.152224824e-05
0.0001920374707
0.0002037470726
0.0003700234192
0.0005831381733
0.001138173302
0.0007587822014
0.001131147541
0.001135831382
0.001159250585
0.001154566745
0.001318501171
0.001496487119
0.001941451991
0.00262529274
0.001847775176
0.002014051522
0.002131147541
0.002131147541
0.002637002342
0.001569086651
0.001728337237
0.00268618267
0.003051522248
0.002634660422
0.003911007026
0.00256440281
0.002362997658
0.002735362998
0.003152224824
0.004316159251
0.004037470726
0.003030444965
0.002725995316
0.003
0.002597189696
0.002451990632
0.002334894614
0.002339578454
0.002330210773
0.002845433255
0.0001967213115
0.0002271662763
0.0002903981265
0.0004215456674
0.0005362997658
0.0007072599532
0.001451990632
0.001264637002
0.001822014052
0.001086651054
0.00100234192
0.001222482436
0.001161592506
0.001899297424
0.002419203747
0.002100702576
0.001981264637
0.001508196721
0.002004683841
0.001426229508
0.002243559719
0.001878220141
0.001587822014
0.001557377049
0.002655737705
0.001948477752
0.00156206089
0.001646370023
0.001716627635
0.00175175644
0.002470725995
0.002407494145
0.002772833724
0.003142857143
0.003290398126
0.003384074941
0.00212412178
0.003011709602
0.002709601874
0.002346604215
0.002182669789
0.002173302108
0.0003911007026
0.0003255269321
0.0004051522248
0.0005784543326
0.0006791569087
0.001227166276
0.0009531615925
0.0008711943794
0.0008922716628
0.0009086651054
0.001133489461
0.001264637002
0.001730679157
0.001587822014
0.002112412178
0.00131147541
0.001599531616
0.001461358314
0.001456674473
0.001170960187
0.001381733021
0.001353629977
0.001283372365
0.001590163934
0.00162763466
0.002224824356
0.001953161593
0.001672131148
0.001470725995
0.001508196721
0.001723653396
0.002035128806
0.001494145199
0.001388758782
0.002255269321
0.002259953162
0.002864168618
0.002285714286
0.001592505855
0.002210772834
0.001784543326
0.001646370023
2.341920375e-05
0.0001545667447
0.0002388758782
0.0002833723653
0.0006206088993
0.0004637002342
0.0008384074941
0.001021077283
0.000850117096
0.001234192037
0.00162763466
0.001093676815
0.001665105386
0.001344262295
0.001177985948
0.001142857143
0.001173302108
0.001245901639
0.001487119438
0.001423887588
0.001672131148
0.001428571429
0.002355971897
0.002025761124
0.002662763466
0.003421545667
0.001920374707
0.001967213115
0.001983606557
0.0021264637
0.0021264637
0.002451990632
0.002405152225
0.002348946136
0.002412177986
0.002128805621
0.002337236534
0.003859484778
0.001805620609
0.002081967213
0.002241217799
0.002222482436
0.002081967213
0.002702576112
0.001166276347
0.002056206089
0.002761124122
0.001266978923
0.0008969555035
0.001510538642
0.003084309133
0.004096018735
0.002203747073
0.002871194379
0.004468384075
0.001964871194
0.002618266979
0.002585480094
0.003100702576
0.002489461358
0.002765807963
0.003318501171
0.003508196721
0.002580796253
0.003259953162
0.004177985948
0.003887587822
0.005142857143
0.00655971897
0.004491803279
0.003590163934
0.003592505855
0.00393442623
0.003768149883
0.003847775176
0.003669789227
0.003845433255
0.003725995316
0.003566744731
0.004281030445
0.004014051522
0.004238875878
0.004072599532
0.003990632319
0.001419203747
0.001768149883
0.003503512881
0.002238875878
0.003206088993
0.004723653396
0.003868852459
0.005545667447
0.00456206089
0.007824355972
0.002601873536
0.003370023419
0.00506323185
0.002845433255
0.002543325527
0.003967213115
0.004576112412
0.003278688525
0.004079625293
0.005466042155
0.004470725995
0.004894613583
0.003845433255
0.004496487119
0.004346604215
0.006585480094
0.004798594848
0.006637002342
0.004163934426
0.004334894614
0.004489461358
0.003817330211
0.004536299766
0.004896955504
0.004154566745
0.004779859485
0.003725995316
0.003456674473
0.003723653396
0.005700234192
0.004358313817
0.004271662763
0.001011709602
0.001463700234
0.002213114754
0.00206088993
0.002046838407
0.002519906323
0.006651053864
0.004360655738
0.006395784543
0.007121779859
0.005030444965
0.004901639344
0.007742388759
0.004391100703
0.002847775176
0.003836065574
0.005868852459
0.006864168618
0.005084309133
0.004943793911
0.00481030445
0.005632318501
0.005920374707
0.006779859485
0.00631381733
0.004456674473
0.004763466042
0.005327868852
0.006370023419
0.00550117096
0.005548009368
0.003868852459
0.003341920375
0.003822014052
0.00393676815
0.004170960187
0.004704918033
0.004348946136
0.004269320843
0.005004683841
0.00462295082
0.004112412178
0.001723653396
0.001243559719
0.001784543326
0.001737704918
0.002365339578
0.001550351288
0.002927400468
0.003709601874
0.007096018735
0.005718969555
0.003770491803
0.004990632319
0.005056206089
0.007393442623
0.006014051522
0.006496487119
0.007381733021
0.006967213115
0.004096018735
0.004969555035
0.004653395785
0.005971896956
0.005384074941
0.006960187354
0.003414519906
0.006615925059
0.00437704918
0.004241217799
0.004782201405
0.004941451991
0.005454332553
0.005100702576
0.004672131148
0.003744730679
0.00418735363
0.004154566745
0.004295081967
0.004288056206
0.003533957845
0.005152224824
0.004838407494
0.003430913349
0.001648711944
0.003201405152
0.002358313817
0.002093676815