/*--------------------------------*- C++ -*----------------------------------*\
| =========                 |                                                 |
| \\      /  F ield         | OpenFOAM: The Open Source CFD Toolbox           |
|  \\    /   O peration     | Version:  v1706                                 |
|   \\  /    A nd           | Web:      www.OpenFOAM.com                      |
|    \\/     M anipulation  |                                                 |
\*---------------------------------------------------------------------------*/
FoamFile
{
    version     2.0;
    format      ascii;
    class       volScalarField;
    location    "3.989";
    object      dsmcNMean_N2;
}
// * * * * * * * * * * * * * * * * * * * * * * * * * * * * * * * * * * * * * //

dimensions      [0 0 0 0 0 0 0];


internalField   nonuniform List<scalar> 
50792
(
0.0009953161593
0.001053864169
0.002177985948
0.002325526932
0.002889929742
0.004318501171
0.005325526932
0.004245901639
0.005177985948
0.005028103044
0.005690866511
0.005163934426
0.006770491803
0.005971896956
0.006929742389
0.00806088993
0.006655737705
0.006793911007
0.007604215457
0.007231850117
0.009201405152
0.009283372365
0.008051522248
0.008908665105
0.01017096019
0.008032786885
0.007960187354
0.01095316159
0.009283372365
0.00949882904
0.01091100703
0.00993676815
0.00981264637
0.0102412178
0.009138173302
0.009555035129
0.01046370023
0.00899765808
0.009714285714
0.01033021077
0.01100936768
0.01098360656
0.0007681498829
0.0006861826698
0.001053864169
0.001580796253
0.002782201405
0.002929742389
0.002611241218
0.002941451991
0.00344028103
0.003721311475
0.004058548009
0.00424824356
0.004728337237
0.006112412178
0.0071264637
0.006398126464
0.006117096019
0.006271662763
0.00675175644
0.006428571429
0.006288056206
0.006177985948
0.007135831382
0.008161592506
0.009337236534
0.008484777518
0.00799765808
0.00881030445
0.009053864169
0.008604215457
0.008983606557
0.00775175644
0.008084309133
0.00755971897
0.007215456674
0.009133489461
0.008009367681
0.009629976581
0.008854800937
0.009152224824
0.007044496487
0.007524590164
0.0008360655738
0.0008243559719
0.001456674473
0.002145199063
0.002604215457
0.003447306792
0.003885245902
0.00393911007
0.004590163934
0.005107728337
0.006053864169
0.004950819672
0.006667447307
0.005925058548
0.006163934426
0.00575175644
0.006653395785
0.00737236534
0.008405152225
0.008384074941
0.007725995316
0.006903981265
0.008704918033
0.008480093677
0.007611241218
0.008646370023
0.007918032787
0.006203747073
0.008515222482
0.009203747073
0.008330210773
0.007615925059
0.008152224824
0.009508196721
0.009170960187
0.009018735363
0.009550351288
0.009943793911
0.01017564403
0.009245901639
0.007978922717
0.008482435597
0.0007072599532
0.001234192037
0.001388758782
0.001943793911
0.002590163934
0.002285714286
0.00306088993
0.003154566745
0.003456674473
0.004906323185
0.006110070258
0.005765807963
0.007517564403
0.005533957845
0.006428571429
0.00818735363
0.00687587822
0.007533957845
0.006257611241
0.009163934426
0.009297423888
0.008859484778
0.007681498829
0.009962529274
0.01123185012
0.009166276347
0.007992974239
0.007402810304
0.009370023419
0.01024355972
0.007601873536
0.00818735363
0.007353629977
0.00793676815
0.008854800937
0.008152224824
0.008613583138
0.009754098361
0.0111264637
0.009271662763
0.009327868852
0.00968618267
0.0007259953162
0.001662763466
0.0008805620609
0.001709601874
0.002119437939
0.002672131148
0.003960187354
0.003496487119
0.003765807963
0.004789227166
0.004463700234
0.004306791569
0.005327868852
0.005220140515
0.006885245902
0.00699765808
0.007210772834
0.007822014052
0.008775175644
0.008789227166
0.00881264637
0.01175409836
0.01062763466
0.009070257611
0.01121779859
0.009316159251
0.008611241218
0.008229508197
0.008173302108
0.009107728337
0.009297423888
0.006550351288
0.007765807963
0.007285714286
0.007571428571
0.009283372365
0.008646370023
0.009484777518
0.01021311475
0.008522248244
0.008608899297
0.00781030445
0.002323185012
0.0007423887588
0.001964871194
0.001730679157
0.001978922717
0.002393442623
0.002536299766
0.002896955504
0.003709601874
0.003693208431
0.004166276347
0.006016393443
0.005281030445
0.006007025761
0.00556206089
0.005992974239
0.006487119438
0.006922716628
0.008733021077
0.008847775176
0.009379391101
0.01000468384
0.01189227166
0.01082201405
0.008428571429
0.008866510539
0.009096018735
0.01002576112
0.01023185012
0.007496487119
0.009927400468
0.007154566745
0.008348946136
0.007981264637
0.007892271663
0.009170960187
0.00781498829
0.008594847775
0.00793676815
0.008538641686
0.008007025761
0.007557377049
0.001114754098
0.0007540983607
0.001421545667
0.001690866511
0.002018735363
0.002430913349
0.004159250585
0.004538641686
0.00393676815
0.003971896956
0.00456440281
0.00499765808
0.005735362998
0.005351288056
0.00499765808
0.005281030445
0.007035128806
0.006419203747
0.006892271663
0.008531615925
0.008220140515
0.01109601874
0.01072599532
0.009100702576
0.01076346604
0.01064871194
0.008103044496
0.008932084309
0.007491803279
0.008653395785
0.01050117096
0.01035831382
0.008854800937
0.008782201405
0.009597189696
0.008138173302
0.007974238876
0.009967213115
0.009510538642
0.01066744731
0.009447306792
0.007423887588
0.001447306792
0.0007798594848
0.0009906323185
0.00137704918
0.001854800937
0.002177985948
0.003386416862
0.003327868852
0.003681498829
0.004512880562
0.004384074941
0.004545667447
0.005058548009
0.005948477752
0.005955503513
0.007468384075
0.009072599532
0.008210772834
0.007274004684
0.007836065574
0.00631147541
0.007676814988
0.008320843091
0.007505854801
0.009072599532
0.008803278689
0.009779859485
0.008831381733
0.009444964871
0.009540983607
0.01021077283
0.009161592506
0.009161592506
0.008613583138
0.009238875878
0.00855971897
0.01061358314
0.01145667447
0.01014519906
0.008995316159
0.008718969555
0.008442622951
0.001789227166
0.001152224824
0.00193676815
0.002402810304
0.00331381733
0.003676814988
0.003517564403
0.004222482436
0.004843091335
0.004681498829
0.005016393443
0.00555971897
0.005199063232
0.006341920375
0.005988290398
0.007103044496
0.007163934426
0.00631381733
0.007114754098
0.007700234192
0.006964871194
0.008384074941
0.006269320843
0.006243559719
0.008473067916
0.009946135831
0.007864168618
0.008548009368
0.007648711944
0.00862295082
0.007093676815
0.008386416862
0.009409836066
0.008325526932
0.009693208431
0.007325526932
0.01115925059
0.01123419204
0.009651053864
0.01129508197
0.008903981265
0.007793911007
0.002259953162
0.0006768149883
0.001330210773
0.001515222482
0.003475409836
0.003407494145
0.003131147541
0.004208430913
0.005077283372
0.005236533958
0.00531381733
0.006620608899
0.005768149883
0.006121779859
0.006039812646
0.007231850117
0.006266978923
0.007592505855
0.00937236534
0.008985948478
0.01030679157
0.00781030445
0.009587822014
0.007674473068
0.008644028103
0.007796252927
0.009067915691
0.009379391101
0.009459016393
0.009555035129
0.009154566745
0.009606557377
0.007908665105
0.008840749415
0.008283372365
0.009398126464
0.01084309133
0.01078688525
0.009081967213
0.01076580796
0.009765807963
0.008487119438
0.00218969555
0.0008548009368
0.001409836066
0.002292740047
0.003817330211
0.00431147541
0.003416861827
0.004510538642
0.005304449649
0.005477751756
0.005819672131
0.005365339578
0.005245901639
0.00512412178
0.006011709602
0.006737704918
0.006538641686
0.00687587822
0.006716627635
0.007845433255
0.007646370023
0.009709601874
0.008906323185
0.008201405152
0.008070257611
0.008079625293
0.008257611241
0.00925058548
0.008421545667
0.008978922717
0.009257611241
0.008081967213
0.009922716628
0.009180327869
0.009468384075
0.008791569087
0.01082903981
0.01039344262
0.01066744731
0.009800936768
0.0101147541
0.008911007026
0.00168618267
0.0009695550351
0.001487119438
0.002070257611
0.002566744731
0.004156908665
0.002985948478
0.004611241218
0.005681498829
0.005081967213
0.005484777518
0.007199063232
0.006503512881
0.005725995316
0.005913348946
0.006421545667
0.00706323185
0.007145199063
0.009203747073
0.008957845433
0.007971896956
0.008733021077
0.008199063232
0.007402810304
0.007227166276
0.007477751756
0.008447306792
0.007362997658
0.009611241218
0.007714285714
0.00950117096
0.008470725995
0.008793911007
0.006672131148
0.006477751756
0.007046838407
0.007032786885
0.008208430913
0.008348946136
0.008318501171
0.007927400468
0.006653395785
0.001800936768
0.0007517564403
0.001175644028
0.001709601874
0.002548009368
0.00362763466
0.003341920375
0.003983606557
0.004899297424
0.004894613583
0.004391100703
0.00725058548
0.006571428571
0.006391100703
0.005128805621
0.005494145199
0.006740046838
0.006515222482
0.007461358314
0.008880562061
0.00737704918
0.006580796253
0.008599531616
0.008011709602
0.008531615925
0.007733021077
0.007768149883
0.009599531616
0.01123185012
0.01005386417
0.00818501171
0.008318501171
0.009168618267
0.009175644028
0.008896955504
0.009276346604
0.009217798595
0.007690866511
0.007960187354
0.007901639344
0.0082529274
0.006405152225
0.001672131148
0.00118969555
0.00162295082
0.001967213115
0.002911007026
0.003323185012
0.002735362998
0.004578454333
0.003843091335
0.004932084309
0.004454332553
0.005494145199
0.00431147541
0.006557377049
0.006320843091
0.005550351288
0.006081967213
0.006782201405
0.006138173302
0.005983606557
0.006742388759
0.007824355972
0.007667447307
0.010264637
0.01046135831
0.009370023419
0.01009133489
0.01099297424
0.01006791569
0.007679156909
0.008156908665
0.009096018735
0.008353629977
0.008278688525
0.007826697892
0.01066744731
0.009456674473
0.007552693208
0.008304449649
0.008170960187
0.008903981265
0.007615925059
0.002697892272
0.0006463700234
0.001367681499
0.002011709602
0.002264637002
0.002803278689
0.003805620609
0.003639344262
0.004662763466
0.005409836066
0.004960187354
0.005238875878
0.004824355972
0.005395784543
0.006573770492
0.006475409836
0.00568618267
0.007133489461
0.007995316159
0.007718969555
0.006510538642
0.007285714286
0.007927400468
0.008702576112
0.008381733021
0.008754098361
0.006892271663
0.008081967213
0.009149882904
0.01133489461
0.010470726
0.009229508197
0.007847775176
0.007817330211
0.009405152225
0.008922716628
0.009456674473
0.009793911007
0.009142857143
0.006854800937
0.008229508197
0.006709601874
0.00212412178
0.0005807962529
0.0009461358314
0.001515222482
0.002723653396
0.002765807963
0.002906323185
0.004131147541
0.00431147541
0.005070257611
0.005156908665
0.004655737705
0.005208430913
0.00618969555
0.005681498829
0.006489461358
0.009030444965
0.007772833724
0.007557377049
0.008798594848
0.008459016393
0.008613583138
0.007
0.007583138173
0.008229508197
0.008496487119
0.0106557377
0.0104824356
0.008669789227
0.009695550351
0.008714285714
0.007770491803
0.008576112412
0.007007025761
0.01009836066
0.007257611241
0.008861826698
0.007620608899
0.007117096019
0.007918032787
0.007960187354
0.008117096019
0.001447306792
0.000793911007
0.001138173302
0.001489461358
0.002304449649
0.002320843091
0.003028103044
0.004281030445
0.003960187354
0.004707259953
0.003515222482
0.004583138173
0.006412177986
0.004983606557
0.005454332553
0.005681498829
0.005100702576
0.006683840749
0.009227166276
0.007496487119
0.006618266979
0.006641686183
0.007203747073
0.00799765808
0.00806323185
0.007051522248
0.009442622951
0.008088992974
0.009180327869
0.008866510539
0.008672131148
0.008548009368
0.009515222482
0.01041686183
0.012264637
0.01103512881
0.01174238876
0.01046604215
0.009960187354
0.01090632319
0.008896955504
0.0072529274
0.002840749415
0.0009086651054
0.001039812646
0.001201405152
0.001845433255
0.001925058548
0.003081967213
0.00324824356
0.004543325527
0.004913348946
0.004597189696
0.004737704918
0.0048735363
0.005229508197
0.006093676815
0.006735362998
0.006444964871
0.006868852459
0.009426229508
0.009737704918
0.007836065574
0.007721311475
0.007168618267
0.009177985948
0.00693676815
0.008522248244
0.006920374707
0.006271662763
0.006213114754
0.006756440281
0.008046838407
0.008037470726
0.008018735363
0.00850117096
0.00949882904
0.01068618267
0.01116627635
0.009353629977
0.01022716628
0.008779859485
0.008700234192
0.007166276347
0.001864168618
0.0005550351288
0.001405152225
0.001533957845
0.002177985948
0.002976580796
0.003840749415
0.00350117096
0.004426229508
0.004950819672
0.005915690867
0.005173302108
0.005320843091
0.006206088993
0.007854800937
0.007128805621
0.006777517564
0.006955503513
0.007533957845
0.008309133489
0.007632318501
0.007892271663
0.007651053864
0.01018266979
0.008430913349
0.008925058548
0.01099297424
0.009868852459
0.009674473068
0.01021779859
0.009318501171
0.0105058548
0.008709601874
0.008833723653
0.009552693208
0.009676814988
0.01077517564
0.009426229508
0.008353629977
0.008121779859
0.008545667447
0.007391100703
0.003276346604
0.0007119437939
0.00118969555
0.001854800937
0.002880562061
0.002711943794
0.003463700234
0.003510538642
0.003824355972
0.005555035129
0.006660421546
0.005381733021
0.006056206089
0.006679156909
0.006456674473
0.00774941452
0.007765807963
0.008489461358
0.005962529274
0.008348946136
0.008538641686
0.008789227166
0.008824355972
0.0108969555
0.009971896956
0.01022716628
0.01097423888
0.009651053864
0.00818969555
0.008590163934
0.008
0.007540983607
0.007889929742
0.009533957845
0.007950819672
0.006929742389
0.008332552693
0.008175644028
0.008887587822
0.008220140515
0.007929742389
0.007585480094
0.004505854801
0.0008290398126
0.00162763466
0.002330210773
0.002850117096
0.003201405152
0.003908665105
0.004690866511
0.005583138173
0.005915690867
0.005733021077
0.007651053864
0.006405152225
0.01090632319
0.007484777518
0.007644028103
0.011264637
0.009505854801
0.008742388759
0.009281030445
0.0116088993
0.009433255269
0.008344262295
0.00912412178
0.008911007026
0.008922716628
0.01016159251
0.009566744731
0.009590163934
0.007826697892
0.008154566745
0.008086651054
0.0087470726
0.007992974239
0.007681498829
0.008470725995
0.007772833724
0.008683840749
0.007370023419
0.006281030445
0.006911007026
0.006604215457
0.003067915691
0.0006346604215
0.001177985948
0.001892271663
0.002362997658
0.00237236534
0.003264637002
0.003655737705
0.003695550351
0.004266978923
0.005016393443
0.006199063232
0.007103044496
0.007545667447
0.01000234192
0.008573770492
0.008386416862
0.009370023419
0.008088992974
0.00850117096
0.009718969555
0.00950117096
0.01096955504
0.009840749415
0.0088735363
0.00900234192
0.009655737705
0.008362997658
0.007461358314
0.008988290398
0.009355971897
0.0082529274
0.008316159251
0.00918735363
0.007288056206
0.009117096019
0.008067915691
0.009166276347
0.006601873536
0.007969555035
0.007152224824
0.006088992974
0.001077283372
0.0007259953162
0.001398126464
0.001395784543
0.001978922717
0.002482435597
0.002597189696
0.00324824356
0.003524590164
0.004531615925
0.004203747073
0.004266978923
0.004690866511
0.006540983607
0.005220140515
0.007494145199
0.007515222482
0.008112412178
0.007836065574
0.00706088993
0.007725995316
0.007864168618
0.009180327869
0.007971896956
0.01136533958
0.008288056206
0.009222482436
0.009081967213
0.008522248244
0.009768149883
0.01011241218
0.01190398126
0.01079859485
0.009149882904
0.01022716628
0.009412177986
0.01093442623
0.01115222482
0.009405152225
0.009114754098
0.007920374707
0.007351288056
0.002295081967
0.001632318501
0.001105386417
0.001597189696
0.0027470726
0.00256206089
0.003156908665
0.003421545667
0.003850117096
0.005180327869
0.006231850117
0.005473067916
0.006604215457
0.006271662763
0.00631147541
0.006672131148
0.007988290398
0.008288056206
0.008526932084
0.006416861827
0.006735362998
0.007482435597
0.008320843091
0.007704918033
0.01028103044
0.008400468384
0.008826697892
0.007259953162
0.007316159251
0.006725995316
0.007744730679
0.008690866511
0.009304449649
0.008323185012
0.008337236534
0.008400468384
0.009032786885
0.0107236534
0.009007025761
0.009442622951
0.008299765808
0.007428571429
0.002728337237
0.0005222482436
0.0009414519906
0.001632318501
0.001831381733
0.002255269321
0.003173302108
0.003210772834
0.003976580796
0.005395784543
0.00593442623
0.006391100703
0.006782201405
0.00618969555
0.007721311475
0.008700234192
0.007341920375
0.00844028103
0.007217798595
0.009243559719
0.006807962529
0.007227166276
0.007555035129
0.008360655738
0.008592505855
0.009400468384
0.008170960187
0.008168618267
0.007882903981
0.008241217799
0.007974238876
0.009634660422
0.01000234192
0.009536299766
0.008896955504
0.008768149883
0.008105386417
0.009053864169
0.007402810304
0.007072599532
0.007992974239
0.007072599532
0.00206557377
0.0004988290398
0.001320843091
0.001597189696
0.002274004684
0.00318969555
0.003618266979
0.003836065574
0.003697892272
0.004822014052
0.00431381733
0.004864168618
0.006454332553
0.007234192037
0.007964871194
0.008161592506
0.006754098361
0.007524590164
0.006433255269
0.007379391101
0.006196721311
0.006070257611
0.008142857143
0.00831147541
0.008229508197
0.008620608899
0.01035831382
0.01069789227
0.01023653396
0.01006557377
0.009758782201
0.008351288056
0.01050819672
0.009615925059
0.009908665105
0.008967213115
0.007292740047
0.008302107728
0.009391100703
0.008800936768
0.007679156909
0.01002576112
0.0006721311475
0.000644028103
0.002182669789
0.00275175644
0.002093676815
0.002854800937
0.003018735363
0.003517564403
0.003859484778
0.004133489461
0.004592505855
0.005786885246
0.005618266979
0.007105386417
0.007014051522
0.007152224824
0.00944028103
0.009412177986
0.008552693208
0.009807962529
0.009274004684
0.007323185012
0.007929742389
0.008290398126
0.009908665105
0.008117096019
0.009723653396
0.009847775176
0.01125761124
0.008615925059
0.0101030445
0.00981498829
0.009030444965
0.009665105386
0.008925058548
0.008533957845
0.008665105386
0.007583138173
0.008175644028
0.008100702576
0.007114754098
0.008526932084
0.001889929742
0.001215456674
0.001330210773
0.002868852459
0.00293911007
0.003992974239
0.003398126464
0.003353629977
0.003880562061
0.004112412178
0.005133489461
0.005683840749
0.004587822014
0.006857142857
0.00700234192
0.007269320843
0.008096018735
0.008103044496
0.007798594848
0.008238875878
0.009711943794
0.007824355972
0.007449648712
0.007449648712
0.008323185012
0.007704918033
0.009070257611
0.009791569087
0.01039812646
0.009995316159
0.009985948478
0.01035128806
0.01031147541
0.01013114754
0.01149180328
0.009292740047
0.01080093677
0.009344262295
0.01014285714
0.008882903981
0.008386416862
0.007892271663
0.001925058548
0.0011264637
0.002946135831
0.002864168618
0.002084309133
0.002386416862
0.003540983607
0.003702576112
0.004468384075
0.004683840749
0.005210772834
0.006074941452
0.00606088993
0.006400468384
0.007025761124
0.005903981265
0.007105386417
0.009580796253
0.007152224824
0.008756440281
0.00874941452
0.007557377049
0.007995316159
0.008948477752
0.009557377049
0.008529274005
0.009681498829
0.008161592506
0.01048711944
0.01103512881
0.008882903981
0.008339578454
0.009906323185
0.00824824356
0.008629976581
0.01060655738
0.00918735363
0.009257611241
0.009466042155
0.008822014052
0.009281030445
0.009259953162
0.00118969555
0.0008337236534
0.001569086651
0.00243559719
0.002306791569
0.002718969555
0.00293676815
0.004276346604
0.004847775176
0.00424824356
0.005325526932
0.005803278689
0.006950819672
0.00725058548
0.007911007026
0.006889929742
0.00756206089
0.008093676815
0.009871194379
0.007831381733
0.008990632319
0.008459016393
0.008648711944
0.0125058548
0.00937704918
0.008674473068
0.008847775176
0.008779859485
0.007386416862
0.007009367681
0.007723653396
0.00706088993
0.006016393443
0.007702576112
0.007163934426
0.008543325527
0.008929742389
0.009777517564
0.009032786885
0.008365339578
0.007295081967
0.007362997658
0.0009180327869
0.0008594847775
0.001325526932
0.001461358314
0.002
0.002817330211
0.003974238876
0.003025761124
0.004515222482
0.004925058548
0.0041264637
0.004700234192
0.004988290398
0.006969555035
0.006463700234
0.00618501171
0.007421545667
0.005822014052
0.007826697892
0.007159250585
0.009777517564
0.007606557377
0.00850117096
0.006971896956
0.007908665105
0.006463700234
0.007430913349
0.007433255269
0.008669789227
0.007449648712
0.008053864169
0.008882903981
0.008444964871
0.007480093677
0.007379391101
0.008850117096
0.00800234192
0.008398126464
0.009634660422
0.008274004684
0.009608899297
0.008070257611
0.001468384075
0.001159250585
0.001112412178
0.001508196721
0.002046838407
0.003028103044
0.003758782201
0.004208430913
0.004170960187
0.003887587822
0.00487587822
0.004779859485
0.005348946136
0.005058548009
0.006278688525
0.006915690867
0.007735362998
0.007716627635
0.007651053864
0.009276346604
0.01116393443
0.00981498829
0.009100702576
0.009163934426
0.01025526932
0.008700234192
0.007964871194
0.007988290398
0.00999765808
0.008976580796
0.00975175644
0.01064871194
0.008922716628
0.008892271663
0.008077283372
0.009091334895
0.009496487119
0.00912412178
0.007667447307
0.008805620609
0.007800936768
0.007496487119
0.001370023419
0.001353629977
0.001334894614
0.001721311475
0.002512880562
0.002386416862
0.002988290398
0.003655737705
0.005798594848
0.005763466042
0.00531381733
0.006339578454
0.006576112412
0.006707259953
0.009088992974
0.007398126464
0.008585480094
0.009344262295
0.007578454333
0.009140515222
0.01013583138
0.01042857143
0.01021311475
0.011735363
0.009878220141
0.0104824356
0.008074941452
0.007543325527
0.007913348946
0.008526932084
0.009667447307
0.009508196721
0.009004683841
0.01043325527
0.008014051522
0.007985948478
0.007025761124
0.008236533958
0.00874941452
0.009629976581
0.008473067916
0.007166276347
0.0004800936768
0.0007658079625
0.001079625293
0.001859484778
0.002042154567
0.002676814988
0.004274004684
0.004276346604
0.005213114754
0.004608899297
0.006081967213
0.005629976581
0.005423887588
0.006529274005
0.007885245902
0.00756440281
0.008121779859
0.008245901639
0.006838407494
0.008112412178
0.008915690867
0.00849882904
0.009203747073
0.008468384075
0.007896955504
0.009023419204
0.009838407494
0.008604215457
0.008899297424
0.007655737705
0.007683840749
0.008177985948
0.00881498829
0.008021077283
0.009365339578
0.0082529274
0.00756440281
0.008114754098
0.007985948478
0.008578454333
0.008208430913
0.007758782201
0.001053864169
0.000662763466
0.001238875878
0.002341920375
0.0038735363
0.003285714286
0.003775175644
0.004489461358
0.003903981265
0.005201405152
0.005690866511
0.004210772834
0.004871194379
0.005234192037
0.006025761124
0.005803278689
0.005896955504
0.007449648712
0.006316159251
0.006355971897
0.006737704918
0.008847775176
0.00718501171
0.009962529274
0.00906323185
0.007995316159
0.008573770492
0.008653395785
0.00781498829
0.008199063232
0.007173302108
0.008074941452
0.008676814988
0.009400468384
0.008740046838
0.009316159251
0.008922716628
0.008911007026
0.01024355972
0.007838407494
0.006854800937
0.00843559719
0.001927400468
0.000737704918
0.001281030445
0.001718969555
0.002330210773
0.002716627635
0.003735362998
0.004702576112
0.005084309133
0.005395784543
0.00618969555
0.006053864169
0.006555035129
0.007475409836
0.006018735363
0.00631381733
0.005957845433
0.007920374707
0.008648711944
0.008711943794
0.007456674473
0.00874941452
0.008836065574
0.00918735363
0.008597189696
0.00862529274
0.009032786885
0.007941451991
0.01015456674
0.007234192037
0.007941451991
0.00762295082
0.006587822014
0.007522248244
0.008791569087
0.009107728337
0.009756440281
0.009634660422
0.009510538642
0.01022482436
0.009327868852
0.00850117096
0.002098360656
0.0008079625293
0.001241217799
0.001637002342
0.002016393443
0.002585480094
0.003777517564
0.004299765808
0.003948477752
0.006128805621
0.005920374707
0.006213114754
0.007423887588
0.006505854801
0.006784543326
0.007238875878
0.006711943794
0.007995316159
0.008100702576
0.00781030445
0.0072529274
0.008088992974
0.008508196721
0.008538641686
0.008451990632
0.008971896956
0.008992974239
0.008365339578
0.008433255269
0.01025761124
0.008334894614
0.008758782201
0.008569086651
0.008491803279
0.01004215457
0.01014285714
0.008241217799
0.008866510539
0.008320843091
0.009845433255
0.009016393443
0.007569086651
0.001725995316
0.0008173302108
0.001288056206
0.002402810304
0.00262763466
0.002697892272
0.003201405152
0.004112412178
0.004477751756
0.004285714286
0.005096018735
0.004566744731
0.004889929742
0.006348946136
0.005725995316
0.008098360656
0.00681030445
0.006281030445
0.006409836066
0.007088992974
0.006067915691
0.006451990632
0.008
0.008339578454
0.007444964871
0.007641686183
0.007566744731
0.008119437939
0.007817330211
0.009693208431
0.008067915691
0.00931381733
0.009360655738
0.008421545667
0.007634660422
0.01057142857
0.009032786885
0.008857142857
0.008039812646
0.009927400468
0.008756440281
0.008529274005
0.002077283372
0.00100234192
0.001540983607
0.002611241218
0.003395784543
0.003613583138
0.00387587822
0.004449648712
0.004845433255
0.005360655738
0.005601873536
0.00656206089
0.005320843091
0.005894613583
0.005826697892
0.007615925059
0.006285714286
0.006880562061
0.008021077283
0.007236533958
0.01013114754
0.008847775176
0.007210772834
0.007051522248
0.00868618267
0.007793911007
0.007477751756
0.007655737705
0.006473067916
0.007714285714
0.00937236534
0.008730679157
0.008557377049
0.00937236534
0.00824824356
0.007484777518
0.006843091335
0.006896955504
0.00781030445
0.008039812646
0.008074941452
0.008545667447
0.003423887588
0.001871194379
0.002142857143
0.003119437939
0.002978922717
0.003058548009
0.004379391101
0.003426229508
0.003646370023
0.004084309133
0.005147540984
0.0072529274
0.006320843091
0.005805620609
0.006398126464
0.008081967213
0.006590163934
0.007208430913
0.008395784543
0.009084309133
0.007515222482
0.006224824356
0.006468384075
0.007683840749
0.007409836066
0.008508196721
0.008259953162
0.007070257611
0.006829039813
0.007285714286
0.008271662763
0.008543325527
0.0102763466
0.008454332553
0.007852459016
0.007566744731
0.006866510539
0.006309133489
0.006632318501
0.00712412178
0.006529274005
0.007784543326
0.002414519906
0.0007353629977
0.001496487119
0.001929742389
0.002451990632
0.003725995316
0.003449648712
0.003142857143
0.00362529274
0.004067915691
0.005018735363
0.005166276347
0.00600234192
0.00493442623
0.006266978923
0.00755971897
0.005927400468
0.008449648712
0.008348946136
0.01064168618
0.007552693208
0.007170960187
0.007597189696
0.008203747073
0.008681498829
0.008320843091
0.01085948478
0.009831381733
0.008138173302
0.008421545667
0.008805620609
0.009740046838
0.008843091335
0.009042154567
0.00818969555
0.009566744731
0.008049180328
0.007084309133
0.006433255269
0.007885245902
0.007100702576
0.007608899297
0.001091334895
0.001131147541
0.002618266979
0.00344028103
0.003707259953
0.004548009368
0.00381030445
0.004911007026
0.004332552693
0.006105386417
0.005180327869
0.006346604215
0.006330210773
0.007152224824
0.007128805621
0.007037470726
0.007107728337
0.008271662763
0.007896955504
0.008927400468
0.009259953162
0.007882903981
0.008327868852
0.009049180328
0.008772833724
0.009480093677
0.01024824356
0.009915690867
0.00924824356
0.009515222482
0.009365339578
0.009833723653
0.009962529274
0.01007025761
0.00975175644
0.01100702576
0.01086885246
0.01011007026
0.01086885246
0.01047306792
0.01013114754
0.01038641686
0.005271662763
0.004334894614
0.004718969555
0.006283372365
0.006831381733
0.007058548009
0.008468384075
0.00762763466
0.009454332553
0.00756440281
0.009018735363
0.01227868852
0.009693208431
0.0121381733
0.01092740047
0.01091334895
0.01048477752
0.01171428571
0.0106206089
0.009651053864
0.0145175644
0.0142295082
0.01207259953
0.01149180328
0.01131615925
0.01150117096
0.01317096019
0.01655269321
0.01410772834
0.01102810304
0.01223887588
0.0130234192
0.01304449649
0.01243091335
0.01203278689
0.01358782201
0.0131147541
0.01575175644
0.01636065574
0.01585714286
0.01849648712
0.01271896956
0.006805620609
0.00737236534
0.005819672131
0.007430913349
0.006170960187
0.01007728337
0.009672131148
0.01557377049
0.01095784543
0.01070491803
0.01194145199
0.01560655738
0.01713114754
0.0135971897
0.01337704918
0.01391569087
0.01425761124
0.0167236534
0.01254332553
0.0161264637
0.01719672131
0.01615456674
0.0173559719
0.01409133489
0.01433957845
0.01618266979
0.01775644028
0.01639812646
0.01841217799
0.01497189696
0.01223419204
0.01305620609
0.01293676815
0.01644028103
0.01633723653
0.01979859485
0.01661826698
0.01701405152
0.01807494145
0.0144824356
0.01595316159
0.01176580796
0.004442622951
0.01020608899
0.00906557377
0.007210772834
0.008334894614
0.01491100703
0.01548946136
0.01500234192
0.01594847775
0.01411709602
0.01209601874
0.01761592506
0.02469555035
0.01942154567
0.01473302108
0.01573770492
0.02353864169
0.01911709602
0.02032084309
0.02144964871
0.02147540984
0.02029508197
0.0198735363
0.01942388759
0.01695081967
0.01948009368
0.01737236534
0.01983606557
0.01570257611
0.01534660422
0.01591100703
0.01669789227
0.01887822014
0.01898360656
0.01800702576
0.01588290398
0.01808899297
0.0158735363
0.01825761124
0.01951053864
0.01532552693
0.01329039813
0.003608899297
0.008091334895
0.00793676815
0.01334660422
0.01023419204
0.01361826698
0.01726229508
0.01368618267
0.01626932084
0.01415925059
0.02034192037
0.01989227166
0.02505620609
0.0270117096
0.01974004684
0.02359953162
0.02789929742
0.02684309133
0.02230444965
0.0227587822
0.02315690867
0.02170023419
0.01962997658
0.02046135831
0.02000936768
0.01808430913
0.0165175644
0.01708665105
0.01977517564
0.01803278689
0.0139882904
0.01492505855
0.01524590164
0.01402576112
0.01450351288
0.01491803279
0.01309133489
0.01503044496
0.0164028103
0.01657845433
0.01289227166
0.01033723653
0.005304449649
0.008967213115
0.007461358314
0.009384074941
0.01233957845
0.01382201405
0.01558313817
0.01902576112
0.01408196721
0.0142763466
0.01567447307
0.02129976581
0.02904449649
0.03141451991
0.0294028103
0.03302107728
0.03026229508
0.03042154567
0.02877283372
0.02957845433
0.02209601874
0.02405386417
0.0236557377
0.02715456674
0.01815222482
0.0133559719
0.01406323185
0.01640983607
0.01654800937
0.01763700234
0.01307494145
0.01376112412
0.01446135831
0.01249180328
0.01369555035
0.01686651054
0.01538875878
0.01489461358
0.01325761124
0.01583372365
0.014470726
0.01291569087
0.00499765808
0.007777517564
0.008943793911
0.01193676815