/*--------------------------------*- C++ -*----------------------------------*\
| =========                 |                                                 |
| \\      /  F ield         | OpenFOAM: The Open Source CFD Toolbox           |
|  \\    /   O peration     | Version:  v1706                                 |
|   \\  /    A nd           | Web:      www.OpenFOAM.com                      |
|    \\/     M anipulation  |                                                 |
\*---------------------------------------------------------------------------*/
FoamFile
{
    version     2.0;
    format      ascii;
    class       volScalarField;
    location    "3.989";
    object      dsmcNMean_mixture;
}
// * * * * * * * * * * * * * * * * * * * * * * * * * * * * * * * * * * * * * //

dimensions      [0 0 0 0 0 0 0];


internalField   nonuniform List<scalar> 
50792
(
0.001142857143
0.00212412178
0.004173302108
0.002880562061
0.003526932084
0.005166276347
0.005950819672
0.005456674473
0.006468384075
0.006088992974
0.00749882904
0.006653395785
0.008946135831
0.007822014052
0.008456674473
0.01067915691
0.008639344262
0.008950819672
0.009444964871
0.009278688525
0.01134192037
0.01137002342
0.0103559719
0.01120843091
0.01245667447
0.01023419204
0.01232318501
0.01406323185
0.01200468384
0.01243091335
0.01420374707
0.01234660422
0.01204683841
0.01246838407
0.01252459016
0.01201405152
0.01291569087
0.01155503513
0.0121498829
0.01275644028
0.01366276347
0.01363700234
0.001648711944
0.0009086651054
0.001318501171
0.001925058548
0.003222482436
0.003526932084
0.003728337237
0.004758782201
0.004526932084
0.005505854801
0.005510538642
0.006180327869
0.006601873536
0.007676814988
0.00874941452
0.008393442623
0.007634660422
0.008318501171
0.008704918033
0.008857142857
0.008850117096
0.009154566745
0.01006088993
0.01025995316
0.01127400468
0.009925058548
0.009878220141
0.01066978923
0.01092740047
0.01122014052
0.01111241218
0.0108618267
0.01042388759
0.009456674473
0.00955971897
0.01153629977
0.01020374707
0.01300702576
0.01179625293
0.01146838407
0.009112412178
0.009538641686
0.0008571428571
0.0009391100703
0.001716627635
0.002426229508
0.002957845433
0.00387587822
0.005803278689
0.004690866511
0.005358313817
0.006566744731
0.006950819672
0.005971896956
0.007976580796
0.00725058548
0.00774941452
0.007088992974
0.008159250585
0.00962529274
0.0102412178
0.01017330211
0.009882903981
0.009255269321
0.01074004684
0.01093208431
0.00968618267
0.01072833724
0.01031615925
0.00881030445
0.01093442623
0.01130679157
0.010735363
0.01164168618
0.01068852459
0.01172131148
0.01208196721
0.01122014052
0.01154098361
0.01190163934
0.01259250585
0.01127166276
0.01102810304
0.01113348946
0.0008735362998
0.001351288056
0.001606557377
0.002255269321
0.002971896956
0.002836065574
0.003723653396
0.003847775176
0.004669789227
0.00581498829
0.00756440281
0.007615925059
0.008573770492
0.006765807963
0.007786885246
0.009459016393
0.009524590164
0.009112412178
0.008423887588
0.01229274005
0.01209133489
0.01172131148
0.009454332553
0.01202576112
0.01297423888
0.01073067916
0.01009133489
0.009967213115
0.01161124122
0.01242622951
0.01047775176
0.01105386417
0.01037704918
0.009901639344
0.01092271663
0.009946135831
0.01053161593
0.01168852459
0.01396018735
0.01202107728
0.0116557377
0.01145901639
0.001039812646
0.001847775176
0.001538641686
0.002583138173
0.002960187354
0.003414519906
0.005405152225
0.004447306792
0.005456674473
0.005850117096
0.006180327869
0.005531615925
0.00681264637
0.006723653396
0.008182669789
0.00856440281
0.009327868852
0.009208430913
0.01038875878
0.01070725995
0.01054332553
0.01433957845
0.01338641686
0.01155737705
0.01337704918
0.01257611241
0.01136065574
0.01004918033
0.01054566745
0.01229508197
0.0121264637
0.009430913349
0.01070960187
0.009304449649
0.01005620609
0.01099063232
0.010735363
0.01166042155
0.01281030445
0.01080562061
0.01103278689
0.01007259953
0.002412177986
0.0009133489461
0.00224824356
0.002072599532
0.002843091335
0.002932084309
0.003257611241
0.004334894614
0.005177985948
0.004758782201
0.0052529274
0.007451990632
0.006264637002
0.007316159251
0.006896955504
0.007555035129
0.007723653396
0.008170960187
0.01018969555
0.01081030445
0.01105152225
0.01309836066
0.01403981265
0.01350351288
0.0101147541
0.01071662763
0.01117330211
0.01279625293
0.01317330211
0.009716627635
0.01210772834
0.009615925059
0.01141686183
0.01051522248
0.01030913349
0.01115925059
0.009552693208
0.01068852459
0.009941451991
0.01112177986
0.01094847775
0.009285714286
0.00168618267
0.0008079625293
0.001480093677
0.001889929742
0.002295081967
0.00293442623
0.004983606557
0.004985948478
0.004817330211
0.004918032787
0.005599531616
0.006084309133
0.007220140515
0.006400468384
0.006149882904
0.006484777518
0.00881498829
0.008398126464
0.009210772834
0.01120843091
0.01109601874
0.01300234192
0.01266978923
0.01099297424
0.01306557377
0.01301873536
0.0112412178
0.0118501171
0.009990632319
0.01072131148
0.01257845433
0.01185245902
0.01097189696
0.01036299766
0.01132318501
0.00993676815
0.01046135831
0.01239344262
0.01187587822
0.01343559719
0.01261358314
0.009896955504
0.001491803279
0.000925058548
0.001351288056
0.001929742389
0.002536299766
0.003222482436
0.004381733021
0.004552693208
0.004777517564
0.006079625293
0.005866510539
0.005880562061
0.006594847775
0.007599531616
0.007985948478
0.009723653396
0.01115456674
0.0102295082
0.009690866511
0.01020843091
0.009018735363
0.01059953162
0.01093676815
0.009953161593
0.01146370023
0.01262295082
0.01268618267
0.0112295082
0.0113676815
0.01201405152
0.01289461358
0.01165105386
0.0112763466
0.01126229508
0.01139344262
0.01044262295
0.01283606557
0.01358079625
0.01272131148
0.01098594848
0.01115925059
0.01105152225
0.001861826698
0.001419203747
0.002489461358
0.002793911007
0.003796252927
0.004182669789
0.004227166276
0.00562529274
0.005920374707
0.006177985948
0.006292740047
0.007117096019
0.006658079625
0.007915690867
0.007988290398
0.008784543326
0.008911007026
0.008084309133
0.009163934426
0.01007494145
0.008892271663
0.0116088993
0.008487119438
0.009030444965
0.01058079625
0.01175175644
0.0098735363
0.01081733021
0.01015925059
0.01198594848
0.01299765808
0.01202576112
0.01262529274
0.01100936768
0.0122763466
0.0106088993
0.01392037471
0.01477517564
0.01238641686
0.01330679157
0.01209601874
0.0097470726
0.002428571429
0.0008360655738
0.001878220141
0.001847775176
0.004021077283
0.004266978923
0.004318501171
0.005117096019
0.006
0.006531615925
0.006634660422
0.008201405152
0.007149882904
0.007421545667
0.007786885246
0.00831381733
0.007613583138
0.008721311475
0.01091100703
0.0106557377
0.01241451991
0.009964871194
0.01114051522
0.009918032787
0.01032318501
0.009480093677
0.01110538642
0.01138407494
0.01202576112
0.01365105386
0.01079156909
0.01154800937
0.009243559719
0.01193911007
0.01002810304
0.01115925059
0.01250117096
0.01291569087
0.01144028103
0.01293442623
0.01236065574
0.0103793911
0.002393442623
0.0009086651054
0.001761124122
0.002409836066
0.004086651054
0.004744730679
0.004032786885
0.005451990632
0.007112412178
0.006679156909
0.007196721311
0.006416861827
0.007067915691
0.006646370023
0.00856440281
0.008384074941
0.008641686183
0.008526932084
0.008353629977
0.00943559719
0.009138173302
0.01208665105
0.01128103044
0.0102763466
0.009583138173
0.009852459016
0.01007025761
0.01133255269
0.0108969555
0.01146604215
0.01124590164
0.01005152225
0.01196955504
0.01118969555
0.0121381733
0.01066510539
0.01240983607
0.01255269321
0.01330679157
0.01157611241
0.01203981265
0.01035128806
0.001826697892
0.001533957845
0.001908665105
0.002508196721
0.003166276347
0.004838407494
0.00393676815
0.005620608899
0.006800936768
0.006355971897
0.007067915691
0.00937236534
0.00850117096
0.008587822014
0.007901639344
0.00800234192
0.008859484778
0.009442622951
0.01168852459
0.0114824356
0.01067681499
0.01090632319
0.01045667447
0.009992974239
0.009576112412
0.01036299766
0.01101405152
0.01067915691
0.01202576112
0.01073067916
0.01233957845
0.01129976581
0.01183372365
0.009262295082
0.008861826698
0.009573770492
0.00987587822
0.01105152225
0.01084309133
0.01117330211
0.01040515222
0.008920374707
0.002962529274
0.001238875878
0.001552693208
0.002217798595
0.003175644028
0.004473067916
0.00537236534
0.004974238876
0.00599765808
0.006379391101
0.005606557377
0.008456674473
0.007969555035
0.007744730679
0.007004683841
0.006964871194
0.008456674473
0.008533957845
0.0105058548
0.01228103044
0.01027868852
0.009555035129
0.01206088993
0.01054332553
0.0110117096
0.01014754098
0.01093676815
0.0125058548
0.01388056206
0.01317330211
0.011529274
0.01172833724
0.01335128806
0.01310772834
0.01269789227
0.01296721311
0.01273770492
0.01071194379
0.01037470726
0.01080562061
0.01039344262
0.008646370023
0.003456674473
0.002470725995
0.002135831382
0.002646370023
0.003697892272
0.004166276347
0.004206088993
0.006526932084
0.006100702576
0.005859484778
0.005833723653
0.007159250585
0.005360655738
0.008056206089
0.007707259953
0.007704918033
0.007611241218
0.00875175644
0.008929742389
0.008182669789
0.008637002342
0.01007494145
0.01131850117
0.01279391101
0.01235831382
0.01233255269
0.0130117096
0.01368852459
0.01368852459
0.01066510539
0.01129742389
0.0127470726
0.01228571429
0.01068149883
0.01094145199
0.01450117096
0.01344730679
0.01178922717
0.01232318501
0.01138173302
0.01155737705
0.00949882904
0.00500234192
0.001028103044
0.001971896956
0.002634660422
0.003014051522
0.003768149883
0.00512412178
0.005740046838
0.005672131148
0.006548009368
0.006159250585
0.006379391101
0.005967213115
0.007121779859
0.007918032787
0.007981264637
0.007030444965
0.008791569087
0.009985948478
0.009423887588
0.007950819672
0.009430913349
0.01062529274
0.01201873536
0.01108430913
0.01195316159
0.009259953162
0.01057845433
0.01183138173
0.01372599532
0.01266276347
0.01183840749
0.0119765808
0.01140515222
0.01353864169
0.01161358314
0.01224590164
0.01262295082
0.0120117096
0.009789227166
0.01059953162
0.008648711944
0.002515222482
0.0007845433255
0.00125058548
0.001845433255
0.003227166276
0.003510538642
0.003662763466
0.005011709602
0.005341920375
0.006370023419
0.006461358314
0.006074941452
0.00649882904
0.008044496487
0.007531615925
0.008889929742
0.0105971897
0.00999765808
0.009573770492
0.01198594848
0.01067447307
0.01149648712
0.009489461358
0.01092271663
0.01049882904
0.01059016393
0.01314285714
0.01298126464
0.01104215457
0.01224590164
0.01045667447
0.009576112412
0.01078922717
0.009716627635
0.01195784543
0.009515222482
0.01144730679
0.009423887588
0.009817330211
0.01043325527
0.01040749415
0.01031381733
0.001758782201
0.0009156908665
0.001344262295
0.00187587822
0.002885245902
0.003107728337
0.004180327869
0.005505854801
0.00544028103
0.006866510539
0.004960187354
0.006056206089
0.007971896956
0.006903981265
0.008381733021
0.007892271663
0.007536299766
0.008922716628
0.01215690867
0.009882903981
0.008461358314
0.00893911007
0.009473067916
0.01101405152
0.01114519906
0.009430913349
0.01261358314
0.01116159251
0.01256440281
0.01154332553
0.01119906323
0.01129742389
0.0124824356
0.01332318501
0.01452459016
0.01394379391
0.01421545667
0.01311007026
0.01302576112
0.01450819672
0.01190398126
0.009344262295
0.003608899297
0.001072599532
0.001430913349
0.001782201405
0.00249882904
0.00293911007
0.003845433255
0.004140515222
0.005974238876
0.006011709602
0.00593676815
0.006213114754
0.006491803279
0.006676814988
0.007391100703
0.009091334895
0.008365339578
0.009400468384
0.01173302108
0.01152224824
0.009421545667
0.009784543326
0.009192037471
0.01148946136
0.009946135831
0.01075409836
0.009971896956
0.008182669789
0.009044496487
0.008735362998
0.0103793911
0.01044496487
0.009641686183
0.01016393443
0.01155035129
0.01345901639
0.01433021077
0.01100468384
0.01192740047
0.01236533958
0.01106088993
0.008911007026
0.002288056206
0.0008337236534
0.001718969555
0.002084309133
0.002655737705
0.003798594848
0.005348946136
0.004421545667
0.005367681499
0.00618969555
0.007590163934
0.006901639344
0.008072599532
0.008716627635
0.009587822014
0.008995316159
0.009447306792
0.0101498829
0.01034192037
0.01061592506
0.01006557377
0.01019672131
0.01070960187
0.01382669789
0.01129508197
0.01083138173
0.01356440281
0.01228571429
0.01232318501
0.01311007026
0.01246135831
0.01368384075
0.01104449649
0.01090632319
0.0116557377
0.01180796253
0.01301639344
0.01142857143
0.01011709602
0.01050351288
0.01064871194
0.009039812646
0.003320843091
0.0008992974239
0.001571428571
0.002718969555
0.003711943794
0.003985948478
0.004918032787
0.004733021077
0.005175644028
0.007695550351
0.008355971897
0.006864168618
0.007683840749
0.008555035129
0.008344262295
0.009887587822
0.009779859485
0.01083372365
0.008161592506
0.01151288056
0.01080796253
0.01077517564
0.01160655738
0.01400936768
0.01181967213
0.01173302108
0.01265105386
0.01237470726
0.01026932084
0.01071896956
0.01057142857
0.009426229508
0.01029508197
0.01155269321
0.009906323185
0.008911007026
0.01051288056
0.01068149883
0.01121545667
0.01027400468
0.01005152225
0.009655737705
0.005367681499
0.001110070258
0.002295081967
0.002847775176
0.004365339578
0.004177985948
0.004864168618
0.005822014052
0.006932084309
0.007213114754
0.007194379391
0.009482435597
0.008138173302
0.01268618267
0.009281030445
0.01033255269
0.01346135831
0.01223887588
0.01162529274
0.01252224824
0.01418735363
0.0121381733
0.01124590164
0.01102810304
0.01200936768
0.0115058548
0.01273770492
0.01185480094
0.01256908665
0.01051288056
0.01117330211
0.0105058548
0.01091803279
0.009887587822
0.009618266979
0.01088290398
0.009503512881
0.01089227166
0.009086651054
0.008110070258
0.009533957845
0.008754098361
0.003302107728
0.0007822014052
0.002454332553
0.002241217799
0.003110070258
0.003672131148
0.004386416862
0.004384074941
0.004725995316
0.005585480094
0.006388758782
0.007360655738
0.008332552693
0.008775175644
0.01151522248
0.01012177986
0.01023185012
0.01177985948
0.009880562061
0.01085245902
0.01111007026
0.01092271663
0.01296252927
0.01372131148
0.01055737705
0.0112763466
0.01183606557
0.01107728337
0.01014754098
0.01104215457
0.01206791569
0.01130913349
0.01204683841
0.01325761124
0.01009133489
0.01214285714
0.01024824356
0.01088992974
0.00844028103
0.00968618267
0.008925058548
0.007414519906
0.001133489461
0.0007517564403
0.00156206089
0.001667447307
0.002892271663
0.003194379391
0.003398126464
0.004672131148
0.004793911007
0.005796252927
0.006245901639
0.005672131148
0.006365339578
0.00818969555
0.007152224824
0.008943793911
0.009053864169
0.01017798595
0.009789227166
0.008482435597
0.009430913349
0.01059016393
0.01218969555
0.01112177986
0.01399063232
0.01059953162
0.01120608899
0.01154800937
0.01042622951
0.01161826698
0.01304683841
0.01572833724
0.01470725995
0.01263934426
0.01414754098
0.01180093677
0.01391100703
0.01359484778
0.01238173302
0.01080093677
0.01006088993
0.009295081967
0.00337236534
0.001943793911
0.001709601874
0.00262295082
0.003339578454
0.003182669789
0.00393442623
0.004297423888
0.005386416862
0.006292740047
0.007592505855
0.0072529274
0.0081264637
0.008128805621
0.00849882904
0.007953161593
0.009299765808
0.01112880562
0.01033255269
0.008402810304
0.008533957845
0.009243559719
0.010264637
0.009346604215
0.01246135831
0.01146370023
0.0116440281
0.009100702576
0.009042154567
0.008768149883
0.009723653396
0.0117236534
0.0125175644
0.01183840749
0.01039812646
0.01015456674
0.01132786885
0.01345901639
0.01155737705
0.01166744731
0.01064168618
0.008894613583
0.004147540984
0.0009320843091
0.001466042155
0.002
0.002409836066
0.002906323185
0.003920374707
0.00443559719
0.005395784543
0.006480093677
0.007154566745
0.007487119438
0.008428571429
0.008241217799
0.00956206089
0.01018032787
0.009714285714
0.0104824356
0.009103044496
0.01117798595
0.008704918033
0.009772833724
0.009822014052
0.0102529274
0.0108969555
0.01199063232
0.01099765808
0.01062997658
0.0106440281
0.009950819672
0.01094847775
0.01204683841
0.01163700234
0.01250351288
0.01122248244
0.01103747073
0.009798594848
0.01089929742
0.009405152225
0.009290398126
0.009978922717
0.00881030445
0.004201405152
0.0008782201405
0.001578454333
0.00187587822
0.002599531616
0.003585480094
0.005009367681
0.00462763466
0.004911007026
0.005653395785
0.005269320843
0.006203747073
0.008257611241
0.009676814988
0.01021077283
0.01011709602
0.01014285714
0.009365339578
0.008206088993
0.009112412178
0.008402810304
0.007796252927
0.01062763466
0.01018735363
0.01000468384
0.0111147541
0.01318501171
0.01376346604
0.01231850117
0.0122529274
0.01254098361
0.01008665105
0.01242622951
0.01154800937
0.01297892272
0.01184777518
0.009110070258
0.01027400468
0.01129039813
0.01114285714
0.009803278689
0.01182201405
0.001430913349
0.0008477751756
0.002456674473
0.003255269321
0.002775175644
0.003662763466
0.003894613583
0.004367681499
0.004969555035
0.005395784543
0.006573770492
0.007409836066
0.007576112412
0.009262295082
0.009072599532
0.008995316159
0.01141920375
0.01131615925
0.01007494145
0.01155737705
0.01123653396
0.008915690867
0.009337236534
0.009660421546
0.01132552693
0.009983606557
0.01180327869
0.01157611241
0.0132529274
0.01179391101
0.01315925059
0.01272599532
0.01228571429
0.01273770492
0.01169320843
0.01157611241
0.01081498829
0.01069086651
0.009529274005
0.009843091335
0.008826697892
0.01041686183
0.002433255269
0.001278688525
0.001552693208
0.003407494145
0.003662763466
0.004955503513
0.004430913349
0.004473067916
0.005194379391
0.005597189696
0.0068735363
0.007695550351
0.006913348946
0.009229508197
0.008918032787
0.009117096019
0.009955503513
0.009948477752
0.009775175644
0.0102412178
0.01212412178
0.01034894614
0.01037236534
0.00950117096
0.01099063232
0.01067915691
0.01320843091
0.0133559719
0.01391569087
0.01355269321
0.01255269321
0.01299297424
0.01238407494
0.01381733021
0.01376814988
0.0126206089
0.01330679157
0.01152459016
0.0126323185
0.01132084309
0.01025995316
0.009725995316
0.003700234192
0.00150117096
0.003398126464
0.003487119438
0.002817330211
0.003145199063
0.004461358314
0.004803278689
0.005800936768
0.005932084309
0.006442622951
0.007484777518
0.008463700234
0.007995316159
0.008557377049
0.008213114754
0.008960187354
0.01116861827
0.009391100703
0.01099063232
0.0105971897
0.009196721311
0.009606557377
0.0116323185
0.01199531616
0.01121311475
0.0126323185
0.01114519906
0.01318032787
0.01317096019
0.01096252927
0.01144028103
0.01189461358
0.01023887588
0.01039578454
0.01304918033
0.01186416862
0.0118735363
0.01240983607
0.01286885246
0.01231850117
0.01178688525
0.002107728337
0.00174941452
0.002742388759
0.003269320843
0.003199063232
0.00381264637
0.004620608899
0.0057470726
0.006159250585
0.005395784543
0.006362997658
0.007110070258
0.008763466042
0.008920374707
0.009854800937
0.008733021077
0.01011241218
0.0100117096
0.01222482436
0.009805620609
0.01061592506
0.01048946136
0.01052693208
0.01515222482
0.01224824356
0.0123442623
0.01078922717
0.01050351288
0.009105386417
0.008725995316
0.009718969555
0.009025761124
0.008503512881
0.0103676815
0.009475409836
0.0102412178
0.01091334895
0.01184074941
0.01106557377
0.01128337237
0.008590163934
0.008765807963
0.002084309133
0.001477751756
0.001653395785
0.001859484778
0.002480093677
0.003463700234
0.005210772834
0.004477751756
0.006384074941
0.006264637002
0.005571428571
0.006365339578
0.006604215457
0.008702576112
0.008288056206
0.008067915691
0.009449648712
0.007320843091
0.009320843091
0.008784543326
0.01146370023
0.009882903981
0.0106440281
0.00925058548
0.01147775176
0.00968852459
0.01069555035
0.009714285714
0.01104918033
0.009777517564
0.01168852459
0.01070491803
0.01032084309
0.01031850117
0.0106206089
0.01084309133
0.0102412178
0.01081733021
0.01367915691
0.0112763466
0.0121030445
0.01015690867
0.003173302108
0.002074941452
0.001487119438
0.001894613583
0.002475409836
0.003711943794
0.004459016393
0.005030444965
0.004838407494
0.004915690867
0.006217798595
0.006206088993
0.006173302108
0.006119437939
0.008166276347
0.009210772834
0.008852459016
0.008950819672
0.009103044496
0.01084074941
0.0132295082
0.01155737705
0.01170960187
0.01211241218
0.01236299766
0.0111030445
0.01014519906
0.01109601874
0.01168149883
0.01117798595
0.01201639344
0.01294379391
0.01124355972
0.01159953162
0.009784543326
0.01101639344
0.01173067916
0.01182669789
0.009948477752
0.01142388759
0.009615925059
0.009615925059
0.001824355972
0.001601873536
0.002170960187
0.002196721311
0.002957845433
0.003161592506
0.003555035129
0.004269320843
0.006576112412
0.007721311475
0.007107728337
0.007838407494
0.008042154567
0.008332552693
0.01092740047
0.008964871194
0.01005386417
0.01118735363
0.009412177986
0.01137470726
0.01267447307
0.01298360656
0.01367681499
0.0145175644
0.01235128806
0.01210772834
0.009796252927
0.009707259953
0.01060655738
0.01089227166
0.01179391101
0.01244262295
0.01205620609
0.01290398126
0.01071194379
0.01114051522
0.01110070258
0.01172599532
0.01182903981
0.01219906323
0.01155737705
0.01003278689
0.001229508197
0.0008618266979
0.001674473068
0.002053864169
0.002496487119
0.003135831382
0.004775175644
0.005323185012
0.006737704918
0.006100702576
0.007463700234
0.007262295082
0.007201405152
0.008402810304
0.009674473068
0.009288056206
0.009822014052
0.01141686183
0.009133489461
0.01042388759
0.01088290398
0.01038173302
0.01178922717
0.01074238876
0.01001405152
0.01169320843
0.01227166276
0.011
0.01201639344
0.009768149883
0.00987587822
0.01041920375
0.01191803279
0.01049648712
0.01196721311
0.01093208431
0.01025058548
0.01259016393
0.01123185012
0.01151053864
0.01081264637
0.01008196721
0.001231850117
0.0008899297424
0.002180327869
0.002901639344
0.00462529274
0.003950819672
0.004861826698
0.005779859485
0.005135831382
0.006899297424
0.006962529274
0.005587822014
0.00631147541
0.006700234192
0.007728337237
0.007754098361
0.007271662763
0.00925058548
0.007903981265
0.007725995316
0.008217798595
0.01064168618
0.009192037471
0.01142388759
0.01065339578
0.009782201405
0.01016393443
0.01028103044
0.009243559719
0.01070257611
0.008800936768
0.01018969555
0.01061358314
0.01131147541
0.01009601874
0.01114285714
0.01180562061
0.01276112412
0.01253161593
0.009882903981
0.009829039813
0.01061358314
0.002149882904
0.0008454332553
0.001522248244
0.002159250585
0.002714285714
0.003199063232
0.004316159251
0.005388758782
0.006058548009
0.007053864169
0.00793442623
0.008227166276
0.008266978923
0.009058548009
0.007847775176
0.008281030445
0.007971896956
0.01031615925
0.01044964871
0.01094847775
0.009550351288
0.01059953162
0.01053629977
0.01091100703
0.01033255269
0.01029742389
0.0110234192
0.009477751756
0.01226697892
0.01021545667
0.01038407494
0.01018735363
0.009344262295
0.01085948478
0.01150351288
0.01131147541
0.01186651054
0.01204918033
0.01303512881
0.01335128806
0.01266744731
0.01114285714
0.00262763466
0.0008969555035
0.001608899297
0.00231381733
0.00281498829
0.003451990632
0.004840749415
0.005362997658
0.005613583138
0.007451990632
0.00774941452
0.008718969555
0.009379391101
0.008433255269
0.008728337237
0.009067915691
0.008758782201
0.01045667447
0.01086885246
0.009587822014
0.009131147541
0.01022716628
0.01051990632
0.0111147541
0.01159250585
0.01122716628
0.01126229508
0.01117798595
0.01140983607
0.01363934426
0.01072833724
0.01198594848
0.01123419204
0.01086885246
0.01325761124
0.01387587822
0.01146838407
0.01169555035
0.01117330211
0.01219672131
0.01128571429
0.009637002342
0.003412177986
0.001098360656
0.001632318501
0.002887587822
0.003110070258
0.003529274005
0.003772833724
0.004791569087
0.005583138173
0.005494145199
0.006702576112
0.006135831382
0.005882903981
0.007529274005
0.006803278689
0.009077283372
0.008503512881
0.00768618267
0.008843091335
0.008985948478
0.008035128806
0.009487119438
0.01044262295
0.01119906323
0.009679156909
0.01030210773
0.01107728337
0.01032084309
0.01
0.01273302108
0.01090163934
0.01228337237
0.01203747073
0.01208196721
0.01161124122
0.01412412178
0.01109367681
0.01083138173
0.0106323185
0.01203044496
0.01063466042
0.01015925059
0.002213114754
0.001053864169
0.001733021077
0.00281498829
0.003765807963
0.004196721311
0.005014051522
0.005208430913
0.005976580796
0.006496487119
0.006761124122
0.007716627635
0.006639344262
0.007391100703
0.007768149883
0.0102412178
0.008133489461
0.008894613583
0.01015222482
0.009367681499
0.01276814988
0.01041686183
0.00893911007
0.009737704918
0.01173770492
0.01042857143
0.01138875878
0.01022014052
0.008836065574
0.01044964871
0.01252459016
0.01304683841
0.01259484778
0.0124028103
0.01097423888
0.01048477752
0.00944028103
0.009348946136
0.01014519906
0.0103793911
0.01040515222
0.0113911007
0.003620608899
0.002098360656
0.002433255269
0.003540983607
0.003515222482
0.003765807963
0.005831381733
0.004690866511
0.005468384075
0.005170960187
0.006149882904
0.008475409836
0.007482435597
0.007704918033
0.008817330211
0.01018266979
0.008571428571
0.008716627635
0.01040046838
0.01051053864
0.009758782201
0.008103044496
0.008056206089
0.009241217799
0.01006557377
0.01045667447
0.009822014052
0.008716627635
0.008545667447
0.009037470726
0.01074238876
0.01095081967
0.01304918033
0.0115971897
0.01114285714
0.01095081967
0.008990632319
0.009320843091
0.009341920375
0.009470725995
0.008711943794
0.009957845433
0.002805620609
0.00106088993
0.001901639344
0.002508196721
0.003131147541
0.004953161593
0.004402810304
0.004014051522
0.004517564403
0.004976580796
0.006152224824
0.006430913349
0.007733021077
0.006522248244
0.008379391101
0.008871194379
0.007526932084
0.009911007026
0.009805620609
0.01181264637
0.00893442623
0.008524590164
0.008880562061
0.009793911007
0.01030913349
0.01054566745
0.01281264637
0.01150351288
0.009608899297
0.009929742389
0.010529274
0.01177517564
0.01033723653
0.01043091335
0.01044496487
0.01182669789
0.01091334895
0.009370023419
0.008025761124
0.01009601874
0.008885245902
0.009255269321
0.001114754098
0.001285714286
0.002857142857
0.003723653396
0.004327868852
0.005011709602
0.004648711944
0.005932084309
0.005182669789
0.007339578454
0.006807962529
0.00744028103
0.007995316159
0.008496487119
0.008306791569
0.008180327869
0.008281030445
0.009517564403
0.009384074941
0.01035128806
0.01093208431
0.00931147541
0.01068384075
0.01107494145
0.01143559719
0.01290163934
0.01216861827
0.01188290398
0.01123185012
0.01164168618
0.01149180328
0.01228571429
0.0123676815
0.01241920375
0.01216393443
0.01313583138
0.01320608899
0.01396955504
0.01267447307
0.01255503513
0.01237236534
0.0126088993
0.007353629977
0.007037470726
0.005885245902
0.008339578454
0.009592505855
0.008325526932
0.009365339578
0.009138173302
0.01253864169
0.01166042155
0.01122248244
0.0151498829
0.01416159251
0.0141030445
0.01354566745
0.01349882904
0.01358548009
0.01420374707
0.01338641686
0.01296955504
0.01802576112
0.01681030445
0.01533255269
0.01566978923
0.01520374707
0.0166440281
0.01973067916
0.02104449649
0.01769789227
0.0146206089
0.01617330211
0.01679156909
0.01689227166
0.01610070258
0.01587822014
0.01731381733
0.01668149883
0.02003278689
0.02037470726
0.02009601874
0.02256908665
0.01670960187
0.008224824356
0.009140515222
0.009323185012
0.009669789227
0.00937704918
0.01480093677
0.01354098361
0.02111943794
0.01551990632
0.018529274
0.01454332553
0.0189765808
0.02219437939
0.01644262295
0.01592037471
0.01788290398
0.01883372365
0.02000234192
0.01662295082
0.02159250585
0.02166744731
0.02104918033
0.02120140515
0.01858782201
0.01868618267
0.02276814988
0.02255503513
0.02303512881
0.02257611241
0.01930679157
0.0167236534
0.0168735363
0.01747306792
0.02133723653
0.02049180328
0.02457845433
0.0203442623
0.020470726
0.02179859485
0.02018266979
0.02031147541
0.01603747073
0.005454332553
0.01166978923
0.01127868852
0.009271662763
0.01038173302
0.01743091335
0.02214051522
0.01936299766
0.0223442623
0.02123887588
0.0171264637
0.0225175644
0.03243793911
0.02381264637
0.01758079625
0.01957377049
0.02940749415
0.02598126464
0.02540515222
0.02639344262
0.02628571429
0.02592740047
0.02579391101
0.02620374707
0.023264637
0.02393676815
0.02213583138
0.02516393443
0.02207259953
0.02084777518
0.02145901639
0.02056674473
0.02222014052
0.02280562061
0.02194379391
0.02005386417
0.02279391101
0.02022248244
0.02252693208
0.02451522248
0.01994847775
0.0174028103
0.005332552693
0.009334894614
0.009721311475
0.01508430913
0.01259953162
0.01516861827
0.02018969555
0.01739578454
0.02336533958
0.01987822014
0.02411241218
0.02488290398
0.03011241218
0.03440515222
0.02575409836
0.03009601874
0.03528103044
0.03381030445
0.02640046838
0.02772833724
0.02781030445
0.02767213115
0.02501405152
0.02742154567
0.02342388759
0.02470023419
0.02089461358
0.02132786885
0.02455737705
0.02297423888
0.01944262295
0.02002576112
0.01991803279
0.0177704918
0.01869086651
0.01907259953
0.01738641686
0.01931850117
0.01993676815
0.02173067916
0.01773067916
0.01376814988
0.006953161593
0.01216861827
0.009819672131
0.01147775176
0.01517096019
0.01729039813
0.02132084309
0.02194145199
0.0196557377
0.01970725995
0.02196252927
0.02588056206
0.03255269321
0.03745667447
0.03402810304
0.04195784543
0.03967681499
0.03892037471
0.03431147541
0.03487119438
0.02792505855
0.03068384075
0.02825995316
0.03291803279
0.02138407494
0.01757377049
0.01907728337
0.01998360656
0.01978922717
0.02057142857
0.01727868852
0.01706791569
0.01703512881
0.01595550351
0.01624355972
0.01980093677
0.02017798595
0.01972833724
0.01743091335
0.01949882904
0.01814519906
0.01577517564
0.006517564403
0.01046370023
0.0115175644
0.01542154567
0.01759953162
0.01412412178
0.02185480094
0.02202810304
0.02330913349
0.02678688525
0.02796487119
0.03318266979
0.03321311475
0.04398360656
0.04732084309
0.04823185012
0.05971428571
0.04986885246
0.03505620609
0.03470491803
0.02921545667
0.02581030445
0.02584777518
0.03313114754
0.02729274005
0.01762997658
0.01475644028
0.01593442623
0.01798360656
0.01350117096
0.0123676815
0.01483372365
0.01638407494
0.01570491803
0.01354566745
0.01456440281
0.01959016393
0.02014754098
0.01846604215
0.01616861827
0.01574473068
0.01466744731
0.007042154567
0.01456908665
0.01761124122
0.01844262295
0.02080327869
0.02027166276
0.02553629977
0.02258782201
0.02673770492
0.02575175644