/*--------------------------------*- C++ -*----------------------------------*\
| =========                 |                                                 |
| \\      /  F ield         | OpenFOAM: The Open Source CFD Toolbox           |
|  \\    /   O peration     | Version:  v1706                                 |
|   \\  /    A nd           | Web:      www.OpenFOAM.com                      |
|    \\/     M anipulation  |                                                 |
\*---------------------------------------------------------------------------*/
FoamFile
{
    version     2.0;
    format      ascii;
    class       volScalarField;
    location    "3.989";
    object      mct_mixture;
}
// * * * * * * * * * * * * * * * * * * * * * * * * * * * * * * * * * * * * * //

dimensions      [0 0 1 0 0 0 0];


internalField   nonuniform List<scalar> 
50792
(
3.477159487
2.045573997
1.047742885
1.506976736
1.175344949
0.8033361955
0.6940832827
0.8178826488
0.6733170578
0.7815794047
0.5859006736
0.7288088998
0.4813413567
0.575634723
0.5416824503
0.4124384212
0.6415779638
0.6452629032
0.5575808059
0.6371531897
0.4271394345
0.4265685333
0.5716584067
0.4955254601
0.3908195139
0.7391313613
0.3956739973
0.3285086269
0.4513419023
0.4191201363
0.3429365989
0.4500453411
0.5417689321
0.440406352
0.4218909767
0.454210607
0.380575936
0.4693936032
0.4514648568
0.3998179918
0.3603857077
0.3596118715
3.06660417
11.80773935
8.253965314
2.620912701
1.317355872
1.246629318
1.286264117
0.9851163674
1.103381914
0.8738113501
0.9729448169
0.8370886053
0.8152945908
0.6192947317
0.5263527876
0.5653980803
0.6996022098
0.6096844884
0.5686036019
0.5672012082
0.5746121427
0.5484358496
0.4780270009
0.4548476457
0.3955882617
0.4815552104
0.489632913
0.43181302
0.4264860586
0.4099949125
0.402598238
0.4205933395
0.4454734206
0.5168203816
0.5193197124
0.3913615922
0.4710327808
0.3445377842
0.3839661492
0.3937177998
0.6135596943
0.6499781269
4.643137136
12.79531885
3.292149908
2.162513588
1.77375258
1.228699287
0.765808524
1.178088965
1.059445079
0.7193499425
0.6637351478
1.028200401
0.5613468188
0.6676694157
0.6035877022
0.8249752313
0.6129043866
0.4684939983
0.4343339735
0.4503321015
0.4712932835
0.5392273458
0.4263612103
0.4134189321
0.5230482306
0.4336643492
0.4558959065
0.6440216699
0.4171962584
0.4053426003
0.4503024692
0.4141080584
0.462964414
0.3940192281
0.3817421286
0.4175074204
0.3997740647
0.3663592521
0.3521628666
0.4150599346
0.4359258995
0.4486686947
4.905206739
3.013732946
2.925071058
2.219096471
1.564099536
2.825453522
1.410188584
1.556410105
1.095234034
0.7857385224
0.5736052766
0.5718091092
0.5065451446
0.7558136159
0.5918930798
0.4606036468
0.4663205315
0.4909529367
0.565320154
0.3557902374
0.3602591344
0.3780021246
0.5106209652
0.3694742986
0.332612714
0.4239721743
0.4513354022
0.4644343287
0.3817106526
0.34951093
0.429841252
0.4023957062
0.4484471062
0.4818124403
0.4218594212
0.480069995
0.4620919279
0.4087169112
0.3235881814
0.4101493299
0.4431871012
0.4590385186
4.140914234
2.308872593
3.488361235
1.953342196
2.07853503
1.641756617
0.7952661695
1.155691501
0.8944796173
0.8747415719
0.8117773088
1.231320504
0.7095371812
0.7837790807
0.5806132978
0.5553486084
0.4965009088
0.4821039285
0.4245809666
0.4113661867
0.4348422286
0.3025381631
0.3276921947
0.3956280527
0.3296345825
0.3534693817
0.4011937793
0.4678100774
0.437833123
0.3584819115
0.3618551686
0.5110923635
0.4186576768
0.5151803484
0.4680738136
0.4221031442
0.4430278465
0.3799225253
0.346154827
0.4460348521
0.414834903
0.4952469408
1.988664694
5.858765427
1.841586793
2.342046228
1.671701816
1.807791935
1.636955045
1.080980841
0.9226424742
1.194926952
1.057392289
0.5929696663
0.7927125315
0.6411196976
0.7443057824
0.6454101815
0.6529177133
0.6882912835
0.4416796874
0.426347345
0.4235709952
0.3455470338
0.3146522643
0.3324370351
0.4886714716
0.4402607502
0.4347581596
0.3576039472
0.3404010712
0.5124531709
0.3563906102
0.4967768407
0.3991470354
0.4437265663
0.4565829658
0.3914440443
0.4956642774
0.4437538248
0.4809477312
0.4274807824
0.4343857607
0.6127732871
3.120605741
14.93710986
3.581981122
6.307669747
5.182815266
2.626771042
0.8811177326
0.8993911725
0.9926013341
1.063258246
0.8912446852
0.7963018602
0.6408260451
0.8046278627
0.9176048209
0.9291016842
0.5400367862
0.6011737845
0.5419799172
0.4077928823
0.4231875166
0.3312126726
0.3440401883
0.4293726628
0.3432557281
0.3407155038
0.4209635532
0.3857138759
0.5030420258
0.4503048116
0.3495880293
0.3782027904
0.4196928125
0.4659479021
0.4066964463
0.5252168525
0.4902188976
0.3785927203
0.4024286394
0.3357957997
0.3714807278
0.6573317203
2.97922462
5.064308336
8.762781901
5.383863682
4.62802119
1.718168426
1.004479408
1.046398861
1.126355782
0.7621267924
0.8542986496
0.9954431379
0.956820395
0.683060429
0.6966013663
0.489831363
0.4031399925
0.4559232923
0.4945447746
0.447655873
0.5680795534
0.4485203465
0.4198123194
0.4960282107
0.3924894767
0.3610718777
0.3565429169
0.4288718163
0.4048447389
0.3882747121
0.357660641
0.4065052126
0.4446595708
0.4283968244
0.4195493967
0.4961042019
0.3422011877
0.3219841702
0.3554671196
0.4341098531
0.4350391196
0.4653553474
2.560494168
2.90779784
1.662261811
1.613235214
1.16834745
1.072865481
1.220996558
0.844731203
0.809065334
0.795643516
0.8483336375
0.7115081708
0.916451697
0.6077646424
0.6253976997
0.5479595058
0.5417979508
0.6411078605
0.5093522637
0.4589914126
0.5559902613
0.379052691
0.5812492347
0.5225770002
0.4196845194
0.3692844252
0.4725263934
0.4147821328
0.4526204512
0.3645226705
0.3485466694
0.3728308593
0.3523083848
0.4382387843
0.3685366864
0.4658753768
0.3136357716
0.2991796983
0.3670783744
0.3292256624
0.3871549558
0.6253399087
2.041996185
14.48658639
2.315061099
3.147577775
1.063645946
1.064632519
1.206119491
0.9407965283
0.7594351594
0.7047429254
0.7366141463
0.5285773748
0.6624412358
0.6271699279
0.5906691335
0.5276009708
0.6290967859
0.5218825216
0.3974733233
0.4046842767
0.3476638387
0.4617833233
0.3874987186
0.4830411239
0.4648742263
0.5694859592
0.417502232
0.4083185323
0.3800846054
0.3261429633
0.435544393
0.3899984107
0.5647093481
0.376241795
0.4933369378
0.4164776911
0.3482250856
0.3337889025
0.3921990471
0.3437170575
0.3644613069
0.4840600839
1.952884042
13.33795648
2.660811269
1.976593129
1.068317654
0.9427086089
1.640558647
0.8582276474
0.6101657921
0.6835969851
0.6243809671
0.7848943017
0.6535423834
0.8186332691
0.5318053274
0.5538708267
0.5436911399
0.5681552369
0.6276938331
0.4803871696
0.5005518929
0.3590756022
0.3960981114
0.43529616
0.4877160141
0.492511302
0.4736446315
0.3932514848
0.4247602919
0.3913754556
0.396445879
0.4953092487
0.3818389153
0.4179792053
0.3674167941
0.4530826347
0.3655092059
0.3603758687
0.3358244126
0.4094876143
0.3829503311
0.597303604
2.490317504
2.755655475
2.43230484
1.94728767
1.621235653
0.8975742565
1.602282897
0.8291704175
0.6574256788
0.7477161028
0.6835653037
0.4676553838
0.5562576101
0.5455230157
0.6602738307
0.6446286208
0.5574416335
0.5149998568
0.3775039314
0.3978701415
0.4445987179
0.4115665725
0.4452605851
0.501643046
0.5438238751
0.4648662664
0.4191898867
0.4376583942
0.3614821245
0.4196409841
0.355317777
0.4012329782
0.3752356408
0.5152023041
0.5361209168
0.4791506192
0.4754502043
0.4023813106
0.4172465006
0.412823331
0.4879159841
0.6881004938
1.838192173
3.693130618
7.751687691
3.651698096
1.728139012
1.041248137
0.8654043685
1.068204825
0.7887355528
0.7645130184
1.171638966
0.5189698805
0.5875441314
0.6313219212
0.7719305246
0.8929046414
0.5744076843
0.5882818395
0.4409589198
0.3693248738
0.4628423384
0.5611248651
0.3762939724
0.4559469156
0.4274513781
0.4989721519
0.4480549304
0.3697227184
0.3156614507
0.3414532044
0.4122027906
0.4004427318
0.3420325018
0.3542399607
0.3718768686
0.3593313274
0.3508632355
0.4346167773
0.4504170233
0.4278659557
0.44392489
0.6725094745
1.675559211
1.771413348
2.09175123
1.759907488
1.169874943
1.014284772
1.063806272
0.6596993557
0.7391006622
0.7671853786
0.8273073215
0.6144766839
1.025487785
0.5467121818
0.5991468305
0.6574256026
0.7030513216
0.5555084321
0.53350854
0.6271129776
0.5695184916
0.4584809307
0.41135517
0.3448447498
0.352266373
0.3652316348
0.3485898479
0.3196409097
0.3258913296
0.4276631459
0.4023585164
0.3516118026
0.3675927434
0.4525620184
0.4377941837
0.3013457601
0.3313094809
0.3999760198
0.3737370455
0.4236747234
0.4097330046
0.5719396481
1.158165334
5.30701121
2.347741823
1.698627763
1.593706537
1.302061864
0.8560748361
0.7987794425
0.817386408
0.6733887031
0.7377226708
0.7287805996
0.8782017211
0.6688336581
0.5975561344
0.5975759138
0.8201341271
0.5344974457
0.444757078
0.4889305609
0.6541555976
0.4931603579
0.4290425624
0.372392268
0.4049498727
0.3701711732
0.5265997144
0.4422701816
0.3877414105
0.3176480062
0.3523130014
0.3812853394
0.3777647722
0.4046413938
0.3277566436
0.3888180963
0.3592801589
0.3431273034
0.3658433086
0.4844354112
0.4514896525
0.6930914021
2.071632882
15.80731961
9.53115832
3.478186464
1.378033135
1.296894023
1.304912527
0.8831567548
0.8430456815
0.6848533475
0.7090037996
0.8424062582
0.7765954517
0.5607922181
0.6414101596
0.5288402412
0.4144003323
0.452584141
0.4838706985
0.3694724662
0.4417890546
0.3965875362
0.5052361486
0.4170614555
0.4532917715
0.4442188429
0.3336782671
0.3498471368
0.4262039159
0.3642529019
0.439798346
0.493294171
0.4184721446
0.468303662
0.363130144
0.5096282208
0.3870463722
0.4975007224
0.4682381304
0.4607492741
0.4606887439
0.486500268
2.582300108
13.3177269
8.925796888
3.961017712
1.719040975
3.897009383
1.259522605
0.8225758721
0.8630141354
0.6501082695
1.381465142
0.8723963427
0.5637555216
0.709548278
0.5538780683
0.5943899873
0.6523439368
0.5200342356
0.359291538
0.4608720508
0.5703641614
0.5413091294
0.4962042914
0.4129506565
0.4087624384
0.5145802004
0.354028297
0.4204788989
0.3622285499
0.3978097512
0.4150038854
0.418213258
0.3668518458
0.3420702587
0.2984972997
0.3176973305
0.3143346115
0.3640148852
0.3660382549
0.3118197989
0.4059415945
0.6744804841
1.534858099
4.315539832
5.356113036
6.647701397
2.062723324
2.099391943
1.284860378
1.217587625
0.7426978578
0.7913176211
0.8541141225
0.7844784798
0.7397767448
0.7515718029
0.6516662459
0.4998380439
0.572980283
0.4864493679
0.3611543244
0.373149653
0.4902478515
0.4683888324
0.5013985639
0.3773007175
0.4575468495
0.4101169517
0.4504611764
0.5737477757
0.5162797781
0.5545047242
0.4487588041
0.4616662593
0.5032088806
0.483623858
0.3983729866
0.3286492992
0.3039067163
0.413153214
0.3766382171
0.3720416988
0.4316047465
0.7983543645
1.975531057
16.32363503
2.656568262
3.251858997
2.028843541
1.220029659
0.8026619522
1.352548958
0.9466978649
0.7658621001
0.6022658605
0.7355769306
0.5817899888
0.5200420656
0.4564451086
0.5398911146
0.4956370855
0.4487524579
0.4353832712
0.4150910884
0.4692738511
0.4582210647
0.4386161058
0.3175497409
0.4030717159
0.4332178663
0.3229624571
0.3693055633
0.3679070526
0.3394109749
0.3609664455
0.3213638923
0.4208900063
0.4230384655
0.3838494246
0.3732370173
0.32587609
0.3914552269
0.4701924658
0.4622391424
0.4627158911
0.7193592412
1.608084169
6.324667177
3.353618463
1.765800433
1.209434702
1.18469552
0.9699411563
1.176520238
1.162011121
0.5736918998
0.5111818689
0.7149497272
0.6130272417
0.5434898108
0.5798898736
0.4612625534
0.472712492
0.4050171019
0.6519727747
0.3895138646
0.4174929231
0.4256635811
0.3812305969
0.3078677447
0.3631921762
0.3658059366
0.337111043
0.3481404073
0.429637552
0.416843691
0.4284530561
0.4858648325
0.4492381115
0.3801737631
0.4779097418
0.5841495681
0.4259976504
0.4301985274
0.4075953449
0.4739890871
0.4775532838
0.5372717778
1.012310482
10.85473537
2.057755572
1.700993472
1.043254316
1.245664197
1.079502349
0.7952456685
0.6429205172
0.6242809494
0.7284664141
0.4790627061
0.6251775855
0.3381574507
0.5065068747
0.4529320167
0.3217346224
0.3621124994
0.3917264111
0.3559234605
0.3012446303
0.3593665366
0.3883969595
0.395774656
0.3712760665
0.4053108101
0.3469021912
0.3683854443
0.3481900002
0.4243792592
0.395899485
0.4311535164
0.4058297439
0.4604349903
0.4750460656
0.4165695151
0.4984041109
0.4056846085
0.5245826848
0.6369280155
0.4797106762
0.5773503807
1.563716862
15.02183413
1.838253037
2.104808722
1.479753592
1.217229419
1.022277667
1.160743248
1.113168761
0.910080277
0.7790234094
0.6481836236
0.5424374487
0.5142953899
0.3708578325
0.4399506527
0.4442506339
0.3692317863
0.4803339612
0.4236062011
0.4084735356
0.4183109102
0.3409434513
0.3232747342
0.4296329303
0.3909664471
0.3715434713
0.4111141281
0.4701686814
0.4209758106
0.3707520877
0.3953535955
0.3691694046
0.3397668432
0.455625278
0.3582307973
0.4334015052
0.3946932879
0.5453845427
0.4538594243
0.5189230158
0.7569948028
3.85650233
8.888487424
2.819377895
7.221466283
1.524465821
1.423975555
1.448560312
0.9817922769
1.137758136
0.8280306276
0.7325877807
0.932090003
0.8035921319
0.5423359022
0.676490008
0.4882549447
0.4832981868
0.4213328781
0.4545220502
0.6069053341
0.5415470475
0.4631864147
0.36984023
0.4267701569
0.3113664546
0.4587402535
0.403558709
0.4077385485
0.5009288337
0.3982048837
0.3480532138
0.2787134375
0.2980256209
0.3631628691
0.3133342149
0.3942114622
0.3168603156
0.3233203113
0.3721109303
0.4379908036
0.4986024303
0.6264544634
1.51896922
2.099290058
3.149187583
1.783413056
1.454771564
1.981850219
1.542667649
1.283340485
0.8537247471
0.7164753809
0.6014068075
0.6374094981
0.5497282429
0.5590056366
0.5277968375
0.5861744818
0.4809408111
0.3899416996
0.4268242457
0.6097484029
0.5967297702
0.5312341981
0.4483144845
0.5225893306
0.3431049783
0.3892035402
0.3766387531
0.5002049049
0.5164496066
0.5888401225
0.487829803
0.3753194447
0.3541662791
0.374157001
0.4451873218
0.4645905328
0.4091280649
0.3299770677
0.38843037
0.3801661699
0.4530262959
0.61115896
1.644258981
4.633403053
3.03851354
2.637316936
3.441757861
2.221015425
1.278138153
1.267743793
0.938554194
0.7117579021
0.6228470136
0.634998319
0.5330812664
0.5727478866
0.4679423729
0.4256724825
0.4700787151
0.4347900389
0.5326675259
0.3981251035
0.6001332388
0.4919416691
0.4763513429
0.4485455566
0.4184177707
0.3708122626
0.4175581776
0.4287016381
0.4198377115
0.4646045198
0.4107608297
0.3690424153
0.388008264
0.3543129909
0.3964400622
0.4104555108
0.4864822278
0.4098595864
0.5156016171
0.5306561164
0.4697541911
0.6217593201
1.723018587
5.347955448
3.133675154
6.016600633
1.946514425
1.23727404
0.8743566038
1.01238485
0.96764488
0.854173518
1.136111345
0.8063891289
0.5360433406
0.455702915
0.4268972286
0.4271813375
0.4383891818
0.4714183398
0.592556507
0.4960161753
0.5611667391
0.6768547708
0.4146826941
0.4412824175
0.4546604509
0.416254742
0.3393735199
0.3194812828
0.3667523234
0.3707428577
0.3600187186
0.4677329016
0.3564177794
0.3913841219
0.3413644382
0.3850769089
0.5895403715
0.4646314034
0.408311696
0.4136478046
0.513577095
0.391673418
3.545703512
5.758925198
1.660175652
1.271423353
1.844683429
1.352318891
1.652187834
1.349775884
1.194879687
1.158235056
0.7644242039
0.6485448695
0.6484972297
0.4929837133
0.5093360236
0.5300903049
0.3885363923
0.3934338087
0.4435089271
0.371040299
0.3906866329
0.5373470626
0.5032039521
0.4833306636
0.3845177153
0.4610376303
0.3774192381
0.3927347407
0.3308836219
0.4024564355
0.3400312029
0.3544255521
0.3697838872
0.3529551723
0.3897540031
0.390432576
0.4206605984
0.4171653425
0.4900010089
0.4954631189
0.6341138737
0.4691048097
2.08193988
3.06981539
3.044826846
1.239130041
1.187820046
0.879334465
1.118334745
1.193093385
1.044187763
1.169706167
0.767707883
0.6245596673
0.848427309
0.5003632079
0.5116514225
0.4936696358
0.436489534
0.4366359435
0.4727588357
0.4345209932
0.3591191863
0.4461433091
0.4536979573
0.5417335011
0.4287040986
0.4861925374
0.3468894492
0.3368353356
0.3174623313
0.3361137717
0.3783170311
0.3605380582
0.3848929348
0.324290682
0.321569622
0.3642339818
0.3323370718
0.425990857
0.3567248376
0.4170422467
0.4883862239
0.5749282089
1.539661055
2.906516672
1.225204535
1.25269848
2.382266409
1.958892108
1.063556856
1.003189711
0.7897086563
0.8260832696
0.7678193407
0.6247719947
0.537993523
0.5634865712
0.5194069153
0.5810990561
0.5087977933
0.3844335473
0.4848848799
0.3931635778
0.4183599712
0.5139211165
0.4857179931
0.382472635
0.3653222569
0.4020101179
0.3494189035
0.4077935979
0.3371160187
0.3414978353
0.4241370091
0.3990135157
0.3832314032
0.4899041642
0.4873117543
0.348309915
0.4032167697
0.4058114049
0.3845842491
0.3700586611
0.3993586472
0.420125681
2.287253138
2.583150659
1.618914633
1.390327857
2.268804385
1.398330623
1.084741263
0.8005902518
0.7438935114
1.225061267
0.7763681723
0.6917333614
0.5254280103
0.570177952
0.4797698111
0.6463857196
0.4729055405
0.4842687413
0.3551649238
0.4777610814
0.4175526993
0.4335607491
0.4357403956
0.2828945521
0.360975646
0.3575400376
0.4154298122
0.4385057179
0.523164432
0.5537217392
0.4789287773
0.5161640736
0.5566864963
0.4395248372
0.4828228578
0.4375244958
0.4019702385
0.3688343159
0.3916139776
0.3894959992
0.5348272888
0.5601043761
2.547846689
2.953707008
2.962667696
6.191137816
4.526104555
1.510910922
0.8349458378
1.110318792
0.6903027938
0.7503892443
0.9896487911
0.8148756145
0.8449932315
0.5177284637
0.5681841226
0.5810736496
0.4741670855
0.7128206619
0.4694796582
0.5202606042
0.3740769434
0.4588978341
0.4202725082
0.5064136023
0.3826911937
0.4837086898
0.4120250864
0.4736711846
0.4074682595
0.4810390936
0.3792870564
0.4191541006
0.4437416278
0.4398741152
0.4291259648
0.4046548576
0.448563871
0.4199422688
0.3244137671
0.413356224
0.3808027868
0.5527369434
1.702775064
2.075797483
5.050283036
5.687297681
4.368598588
1.303391776
1.109410956
0.9190429021
1.027088947
1.032131561
0.7597672582
0.8227034333
0.9084173959
1.094869404
0.574780355
0.4883907438
0.5507880494
0.5416152114
0.5354185907
0.4173838541
0.324568231
0.3771466014
0.373097321
0.3562500307
0.3503040933
0.39603327
0.4690872979
0.4190684822
0.3762735982
0.4307415978
0.3790196932
0.3419111317
0.4099395735
0.3847516873
0.4890439513
0.405685523
0.3886544681
0.3828959976
0.4625469293
0.38905086
0.4961517558
0.5212892025
2.401138867
2.629679628
2.163027956
3.544319913
1.558347677
1.696557411
3.379841763
1.704305849
0.6716189359
0.5693912163
0.6834549647
0.6263015401
0.6297687805
0.6379365047
0.4073701109
0.5577343535
0.4558000901
0.395735257
0.5085048019
0.3955042243
0.3494324965
0.3367353673
0.3160411643
0.300913021
0.3655296589
0.3631669255
0.4736065129
0.4896344294
0.440837677
0.4270085364
0.383007459
0.3595762831
0.376752322
0.3477053508
0.4482002508
0.4231647936
0.4344377875
0.3814574238
0.387032875
0.3707524856
0.4128875874
0.5553936275
3.84306
7.201309877
2.670657015
2.234034009
2.020716748
1.707041079
0.9252795963
0.8737589283
0.6485386018
0.7961154298
0.6351162859
0.7151203446
0.7657231485
0.5731606307
0.4647747493
0.5202398346
0.4760696993
0.3971060436
0.5732055636
0.4442041676
0.4185199255
0.4409718753
0.3782747864
0.4153732206
0.464548468
0.3824976565
0.3632883261
0.4133110054
0.3652711666
0.4733034587
0.4756595083
0.4478766978
0.3812050442
0.4411011016
0.3672870266
0.4255605965
0.4715644998
0.3624349479
0.4314236617
0.4014916383
0.4505689947
0.5544661694
3.71007526
14.33243678
2.184115051
1.599820489
0.9120870413
1.151745825
0.9656566688
0.751738522
0.9260656269
0.6207467113
0.6198652723
0.90874483
0.736546846
0.673102504
0.5883515684
0.5927926608
0.6371230325
0.4667617678
0.5779382442
0.6194753878
0.6199740384
0.4267397606
0.524115421
0.3807581467
0.4217211269
0.4605032054
0.4271642015
0.4296791103
0.498486345
0.4177292268
0.5501923602
0.4512871658
0.4231242496
0.3930808305
0.4561577613
0.4178021021
0.3979493904
0.3577786386
0.3506943264
0.4941259388
0.5223642797
0.459253873
2.151848709
14.44035342
3.617653965
2.373864196
2.437415315
2.71937426
1.075725011
0.8361087926
0.7581865246
0.6139291754
0.5398829289
0.5367687504
0.5668389753
0.4954419358
0.6127545579
0.5749696745
0.7176794737
0.438257057
0.4330127798
0.4119299981
0.486672421
0.4085101097
0.4277294417
0.4211734379
0.4418760092
0.445071487
0.4040242546
0.505217837
0.354878768
0.4398142815
0.4359191743
0.4527004886
0.5216264266
0.4348903957
0.3973972258
0.4059807478
0.3779244182
0.3728512079
0.3476712097
0.3418448992
0.3687499934
0.4661924027
1.992271063
13.7999322
8.066988098
5.609997787
2.55986617
1.533177597
0.9711860683
0.9025959253
0.8555406149
0.5895913658
0.5642960781
0.4952270508
0.462617576
0.5577118689
0.5758129945
0.535845161
0.5640803304
0.4376248836
0.4200770755
0.5123791324
0.5935503628
0.4830841768
0.451740445
0.4146005162
0.4040812178
0.4218627708
0.4080800176
0.4193510909
0.4121605793
0.3262325105
0.4486439718
0.3893217287
0.4232600777
0.4470305309
0.3321456073
0.3164476287
0.4135880007
0.3885220021
0.4132824571
0.3580164248
0.4041289511
0.5417905622
1.574638487
11.1955891
7.351227447
1.5830343
1.504455049
1.379590281
1.359466403
0.9342133813
0.7934225886
0.8342574566
0.6714943901
0.7835389242
0.8864859367
0.5889549918
0.7206053961
0.4771234632
0.5316311741
0.6351849077
0.5215622989
0.5002907357
0.6091455521
0.4875933699
0.426806885
0.3885816032
0.4762806858
0.4481954321
0.4017775523
0.4377635505
0.4692719909
0.3463794107
0.4411809058
0.3651618683
0.3772347327
0.3765661279
0.4016285445
0.3110811053
0.4130741471
0.4320049196
0.4455226391
0.3757821247
0.4455931
0.4780451408
2.388256527
4.003720473
2.577192716
1.473089293
1.098638907
1.04862856
0.9206451225
0.9175999694
0.7976348145
0.7599353914
0.714635399
0.5873533092
0.8108768259
0.7056223817
0.6723025172
0.4470126962
0.6266093132
0.5389885217
0.4390486592
0.5025699195
0.3400007771
0.4188701729
0.5277337527
0.4735833495
0.3855057872
0.4587023135
0.4023407497
0.4653104079
0.6273032459
0.454584492
0.3569958876
0.3462760656
0.3591584698
0.3540772918
0.4087439643
0.425936906
0.5228675907
0.5372069836
0.4683976891
0.4564371285
0.4861812247
0.4425896036
1.517353172
1.983654546
1.657488225
1.133835713
1.187236361
1.165930645
0.7102391956
1.04000339
0.8811024494
1.00614674
0.7693308642
0.5055122891
0.6113368601
0.6334723238
0.5278657431
0.4413757549
0.5527305723
0.5229208558
0.4134622017
0.4071372114
0.4595104132
0.6382200335
0.6658476049
0.5009963975
0.4444783421
0.4279234424
0.4533557651
0.5389460573
0.6005473867
0.5524472257
0.4256235696
0.4098418092
0.3346803454
0.4018484662
0.4207051317
0.4194736235
0.5413153511
0.5130278363
0.5357974218
0.5132101357
0.6427827916
0.5200274547
1.843953148
5.535741548
2.375577596
2.039475315
1.590648956
0.9045490974
1.095361551
1.397457435
1.3805583
1.105062778
0.8025941815
0.7840185946
0.5961067953
0.8151545
0.5551181082
0.5188811411
0.7300604543
0.4536755033
0.465070568
0.3679050399
0.5528196515
0.6117832457
0.5694500512
0.4835458371
0.446957902
0.44220568
0.3366873935
0.3840284943
0.5391369158
0.5069900971
0.4577458395
0.3921728038
0.4680149649
0.4638416422
0.4546532685
0.3774346956
0.422889099
0.5007327776
0.7234373087
0.4707934347
0.7107384942
0.6869653499
3.797049768
3.132430926
1.437069639
1.066956823
0.9270792445
0.8282737658
0.9493346438
0.7359296621
1.050859512
0.6026520655
0.6523465345
0.5944477714
0.5716641106
0.5372874437
0.572373215
0.6106278945
0.7114593258
0.5432232154
0.6414179389
0.4933483155
0.4684655661
0.702739993
0.4739271096
0.4390752852
0.4615927856
0.3807112057
0.4313401866
0.4554282056
0.5023789997
0.464846877
0.4870788721
0.4237993488
0.4319324138
0.4126733722
0.4426033
0.3930371629
0.4015970117
0.3556897538
0.4518651998
0.4895643605
0.4857015993
0.4409346228
0.8717388245
0.7432681449
0.7669665618
0.5426494197
0.4594736403
0.4957601335
0.4360616868
0.4415789552
0.3349330247
0.3659994595
0.3679411361
0.2748368114
0.3010506501
0.2969921689
0.3108815722
0.31579629
0.3174989845
0.3024405382
0.33361272
0.3560308087
0.2403668145
0.2627473087
0.2968041803
0.2997010353
0.3169025195
0.2837377732
0.2316029348
0.2085684296
0.2604411897
0.3913512028
0.3121458483
0.3021446107
0.301169508
0.3195515221
0.3299024033
0.2851660029
0.3150532954
0.2372636731
0.235015585
0.2365733157
0.2006124972
0.36130273
0.710420012
0.5398031508
0.5138614279
0.4706287606
0.4695303532
0.3139777598
0.3328683166
0.22686335
0.2836247143
0.2505739319
0.2881260507
0.2266023402
0.2001180002
0.2595918383
0.2654575176
0.2406591945
0.2282100019
0.21376988
0.2602689972
0.2033997459
0.202451292
0.2081547852
0.2053019283
0.2382583854
0.2383831938
0.1964461776
0.1924892139
0.1922776566
0.1930179949
0.231640568
0.2776560039
0.2798720059
0.2722136287
0.2083753661
0.2217161931
0.1777208781
0.2206087535
0.2187213883
0.2021348029
0.2258818949
0.2257204019
0.3396077413
1.074679064
0.4576707551
0.4253649414
0.4693677965
0.4112756061
0.2560343225
0.2148170554
0.230598357
0.2022514073
0.2100824784
0.2509698455
0.1971251014
0.1442414602
0.1805948822
0.2395822504
0.2167326023
0.1513390584
0.1703300247
0.1711390959
0.1636325111
0.1652860933
0.1678065902
0.1693947402
0.1676526087
0.1898988283
0.1819381277
0.1983163923
0.172976364
0.2014701831
0.2159245407
0.2086012686
0.2176426623
0.1970398618
0.1927285371
0.1979686538
0.2174301299
0.1910361726
0.2249191814
0.1934269377
0.1772013282
0.2279344195
0.2798891029
1.017907516
0.5343164574
0.4660956527
0.3099373928
0.3499379287
0.2879835877
0.2289928315
0.2626783352
0.2025259115
0.2272470913
0.1871766643
0.1815554651
0.1507837214
0.1338225446
0.170555917
0.1479078296
0.1299611561
0.1338770388
0.1666914076
0.1589904237
0.1572587496
0.1622670902
0.1775127339
0.1652460959
0.1865542877
0.1820085057
0.2126998452
0.2066222456
0.1765450624
0.1914863842
0.2315419325
0.2216401549
0.2217648889
0.2525040131
0.2410788076
0.2339531552
0.2643525589
0.2272183931
0.2191238723
0.2021881839
0.2543983643
0.3690177223
0.8727833026
0.4613811788
0.495032507
0.410371067
0.3125651502
0.2698220001
0.2249912761
0.2088531331
0.2323437452
0.2303699158
0.2071709014
0.1740146133
0.1399453954
0.1235280847
0.1310837412
0.1099894475
0.1145014579
0.1178702026
0.1324765261
0.1308691886
0.1626532397
0.1494230444
0.1585068928
0.1391246523
0.2040971801
0.2522672803
0.233460595
0.2186806252
0.2187791265
0.2106217545
0.2544218189
0.2563440209
0.2566268842
0.2807280177
0.2733115689
0.2180369734
0.2162729901
0.2212944192
0.2570636112
0.2235793683
0.2470774232
0.3108008047
0.928834687
0.5273729479
0.4316046585
0.3249139668
0.2766778164
0.3208343432
0.2249184331
0.2071726649
0.1993802214
0.1714543502
0.165675628
0.1450969218
0.1415257691
0.1089236383
0.1027079383
0.09976672627
0.08245576924
0.1005254967
0.1405426152
0.1434487421
0.1614656179
0.1793835031
0.1753838514
0.1447235963
0.17558761
0.249821098
0.3001833449
0.2776502747
0.2433216773
0.3201285031
0.3532259528
0.287236665
0.2620060298
0.2738294085
0.3237637301
0.3108876002
0.2207121717
0.2099627621
0.2368288036
0.2849415916
0.2960514884
0.3513686957
0.8773449886
0.3800710768
0.2955130219
0.2664497782
0.232940216
0.2305909345
0.1904268325
0.1960447617
0.1718519236
0.171652128
0.1447207951
0.1077059368
0.09726059514
0.08880002569
0.07178290771
0.07576329437
0.04155552617
1.82257253
0.531277395
0.5082067736
0.4570918566
0.3521866786
0.3399107636
0.4904395125
0.3593008458
0.3529892728
0.3465444654
0.3288272998
0.3529986524
0.3652671661
0.3374375335
0.3109922803
0.3099934501
0.429048617
0.751377784
0.408521453
0.2793588899
0.2162780822
0.2057549732
0.199239817
0.1861167217
0.150972894
0.146312892
0.1179648215
0.1102037845
0.09135402589
0.0732414897
0.06709592508
0.04098282443
1.045142607
0.6934672909
0.5652744207
0.5907814449
0.5892584701
0.6641005553
0.4551226927
0.4103084112
0.3904708676
0.4617976992
0.3817036688
0.3239678861
0.3346643265
0.3343777799
0.428625711
0.7470103416
0.4317245145
0.3251528915
0.2513255215
0.2042541305
0.2044463531
0.1463355249
0.1086223623
0.1356887046
0.1002851576
0.06846151741
0.08052974822
0.04386342047
0.0005064449915
0.0005223851281
0.000528498446
0.0005283647757
0.0005320333879
0.0005311540657
0.0005240926938
0.0005110385232
1.091982578
0.5702909036
0.8713413236
0.701573974
0.7960189132
0.8296464879
0.7497419849
0.4269260651
0.5861165143
0.4814412119
0.4955956445
0.5313213321
0.5072926437
0.6790592687
0.4167007912
0.3057436745
0.2493998691
0.2024353568
0.1631159093
0.1464891307
0.1176898442
0.1076632834
0.07610510945
0.05044678811
0.0005152759508
0.0005428936817
0.0005727018712
0.0005840445274
0.0005935905356
0.0005952577388
0.0005983001336
0.0005942126014
0.0005819421393
0.0005639249143
0.0005346980449
0.0005125494926
2.043317253
1.241378472
1.361704274
1.611919172
0.8851867866
0.9678205981
0.6537148578
0.4976664636
0.5952551012
0.5541731484
0.5867722519
0.4980216758
0.3019865779
0.2353102363
0.2190155494
0.2055872001
0.1538207414
0.1438868684
0.1186961053
0.07862794358
0.04942004611
0.0005081932236
0.0005423578993
0.0005729969512
0.0006008366692
0.000629713219
0.0006443064505
0.0006584635553
0.0006604030893
0.000657877163
0.0006469189883
0.0006390468311
0.0006256165603
0.0005965874282
0.0005710264572
0.0005349477343
0.0005045628819
3.205460796
1.404266891
1.409469917
1.534769148
0.8316373062
0.8836355849
0.9347656652
0.4214701031
0.5709148938
0.4979914048
0.6910795664
0.3486616841
0.2639176222
0.1950789748
0.1857630869
0.1794479643
0.1197423096
0.08697639499
0.05037229592
0.0005160628538
0.0005606425705
0.0006034020579
0.0006307667916
0.0006538816811
0.0006851685126
0.0006975989542
0.0007054070318
0.0006959765716
0.000697639395
0.0006961782678
0.0006902085785
0.0006737958563
0.0006531065954
0.0006175387997
0.0005911987436
0.0005514104892
0.0005107872081
5.267054555
1.475881201
1.329546879
2.693261301
1.300763622
0.8469959023
0.7044025199
0.5084812635
0.5806166053
0.6197196958
0.3081131754
0.2473262335
0.1792605075
0.1683181934
0.122315742
0.09356125172
0.07366891634
0.0454313695
0.0005155209471
0.0005654707819
0.0006051967209
0.0006542286311
0.0006812051572
0.0007047856459
0.0007029178222
0.0007102607379
0.000704374771
0.0007001463815
0.0007011196586
0.0007007794986
0.0007054665837
0.0007054720665
0.000702176019
0.0006761621123
0.0006412970429
0.000595869511
0.0005520918492
0.0004984334444
6.665965975
2.491455216
2.857703143
1.406633373
0.8591920848
0.7950000486
0.6296221609
0.6106037534
0.8201627152
0.5252542391
0.3340166035
0.1988500498
0.2061819658
0.1462036689
0.1104073981
0.08481813803
0.05468471801
0.0005116472632