/*--------------------------------*- C++ -*----------------------------------*\
| =========                 |                                                 |
| \\      /  F ield         | OpenFOAM: The Open Source CFD Toolbox           |
|  \\    /   O peration     | Version:  v1706                                 |
|   \\  /    A nd           | Web:      www.OpenFOAM.com                      |
|    \\/     M anipulation  |                                                 |
\*---------------------------------------------------------------------------*/
FoamFile
{
    version     2.0;
    format      ascii;
    class       volScalarField;
    location    "3.989";
    object      mct_O2;
}
// * * * * * * * * * * * * * * * * * * * * * * * * * * * * * * * * * * * * * //

dimensions      [0 0 1 0 0 0 0];


internalField   nonuniform List<scalar> 
50792
(
31.75220001
5.083094849
2.607774828
9.921540488
8.206278078
5.994604192
19.54744851
4.122070407
3.862878037
6.462690091
2.716087881
3.465289256
2.310132299
2.736347866
5.618900769
1.92287953
3.106073384
2.828673682
4.732109328
4.544660928
4.835770657
3.508754922
2.785072549
2.859151817
3.191010329
3.875652918
1.159362711
1.768198928
2.239652177
1.949540612
1.72024589
2.637430496
3.697696183
3.839779276
1.585429133
3.326335753
3.416000144
2.549407732
3.280591165
3.33661744
2.816088001
2.919197687
6.711727428
59.14001791
51.11373184
37.30542374
29.10739879
21.81458151
4.796730772
2.858087888
9.036703063
2.896726655
4.728634367
2.772090537
3.104499986
4.128390995
4.129492458
2.705109744
6.037166429
2.822139557
3.740798692
2.283735502
2.109224348
1.747979956
1.780847542
2.605669075
2.910016847
6.153710519
2.933276449
3.7558299
3.487881395
1.999484851
2.543210983
1.578928237
2.299377978
3.298950715
2.305234035
2.261945678
2.481754324
1.527143279
1.734324876
2.444363883
2.93136473
4.317413334
842.5037621
156.5975168
58.35762595
54.08670044
36.31293291
29.60867168
2.846518458
7.57929868
17.34815386
3.454939752
7.949673571
6.395973059
4.398538685
4.84695674
3.735863735
5.870512721
4.52754246
2.201502034
2.85900909
3.431920897
2.638328774
2.27144511
2.845557194
2.205240298
3.457443829
4.443363952
2.6553159
2.217876693
2.440383506
3.679408735
2.754774694
1.274471563
2.279175149
2.860776295
1.816701637
2.504799788
3.213006633
3.303730914
2.332733187
3.396617298
1.714953573
2.092053146
36.15977661
135.9483229
60.72304844
43.90400703
35.43178331
24.36435458
19.63083795
19.04666764
4.368276271
6.999768809
3.412588844
2.630572116
4.996247167
5.086444528
4.180830954
7.718409986
1.838197554
3.758370447
2.460250397
1.582961901
1.800749221
1.807683687
4.360278792
2.877868036
4.18942573
4.91370829
2.575709206
2.071040903
2.599156672
3.049310678
1.833955469
1.806275789
1.690116784
2.801793117
2.616438375
3.688074371
3.312940262
3.934111228
1.856639151
2.011963578
2.819931546
4.5809335
16.13611767
80.32766512
8.057262935
6.521505761
14.90361854
17.15119028
3.421153004
6.010879719
2.943654304
6.670122195
3.076835317
5.236216437
3.593561258
3.608156569
5.339299588
3.755053821
2.494226446
4.245240035
3.441858751
2.758831799
4.730468353
1.963507425
1.848510762
2.130378587
3.104013239
1.614296124
2.031295553
3.806610476
2.223542597
1.597989348
1.83335691
1.780303054
1.754983192
2.831071503
2.125124211
4.61034224
2.913232509
2.839513455
2.143958043
2.594969303
2.295721
3.164086857
201.6606386
85.83037044
51.67492152
41.10924369
5.829361041
25.38360857
10.47257237
3.387295599
3.552660943
6.948532137
5.349553336
3.568394398
7.964905742
4.07035536
4.305454276
3.407860166
5.217092383
6.600202814
3.839091405
2.791228916
3.949152745
1.668058705
2.644196148
1.978569715
3.77823136
3.104830327
2.742152881
1.889374867
1.74552677
2.703041325
2.582373287
2.181403342
1.672768951
2.066721048
2.208394919
2.989815957
4.397078064
2.825692981
2.740779137
2.027282219
1.736051835
3.720588537
22.03750588
720.9454938
435.6033677
77.26539945
48.36316656
13.28699057
6.005784094
15.97849918
6.262255856
5.737325762
6.106267679
6.237482866
3.507596107
6.933176938
5.709395979
7.113073639
3.545838628
3.514470968
2.526262318
2.012623343
1.818822629
3.169697165
2.962916547
3.246101031
2.528207861
2.362153107
1.642785601
1.832701056
2.208896826
2.618167698
2.491680545
3.500943723
2.351213564
4.955968314
4.092259875
5.385265448
2.429711765
2.57621395
2.666855037
2.086442586
1.72903344
2.691077806
445.4683605
92.54937521
34.67913484
21.60982465
18.27464017
5.519024881
6.485347755
4.79647366
9.246356358
3.463565772
3.865233492
8.766065996
5.776315697
6.267025446
3.454613297
2.825943722
3.933169837
3.614657997
2.232154435
2.358824517
2.026649212
1.87750767
2.260911868
2.448583922
2.528103289
1.365003659
1.771728853
2.169992099
2.915105054
2.258397191
2.091029203
2.301776152
2.994803163
1.916242633
2.625710371
3.261493985
2.500671646
2.780474058
2.034790756
3.252225805
2.219277742
2.124565724
190.6805026
51.9016084
9.338814447
36.91765734
29.38875602
28.16099212
19.26605296
3.760522906
9.624540267
3.511368334
6.786437351
4.297771353
9.143713633
4.884039982
2.744875574
4.878889424
5.937918572
6.4655732
2.901138017
2.361877442
4.1561501
1.547991036
2.569444119
1.831661754
2.780034865
4.305503317
2.895494657
2.411774832
2.089582638
1.479251038
0.880324477
1.390093699
1.665110221
2.175731577
2.244985276
1.561186526
1.82639475
1.407087229
1.879951662
2.851038872
1.576629592
3.383870431
28.56701795
104.1456719
8.837848809
45.12338275
24.82162074
15.41228796
4.70379969
9.074516834
14.92631528
4.213839153
4.462218733
3.359615268
4.152084728
4.184974048
2.834487766
8.611585904
4.253752421
9.966732553
3.661283108
3.144873808
2.43969045
2.340077175
3.475573257
2.259295587
4.872022569
4.566961195
2.827209278
2.812724278
2.021633722
1.250638331
4.07801929
2.69799767
5.349436394
1.632389863
3.335565347
3.424579571
3.550520245
2.368436585
2.071111196
2.659831011
1.987351239
3.444676123
24.29888322
0
15.90165318
126.1744539
51.21443623
30.54174744
13.22531858
6.393592443
2.746793157
8.9078327
3.745310134
11.57889055
2.733169885
3.541019445
1.989972601
3.566964425
2.491428003
3.89658525
4.07599159
3.661961074
5.144274607
2.229676914
2.210425159
2.559151906
5.257714967
4.028774798
3.463319352
2.546338325
2.054206712
1.989910932
2.695758976
2.967048267
2.714102179
2.678017316
1.931878729
2.817243144
3.998074179
2.355602161
1.912139094
3.117051056
2.752078274
4.763040852
38.21466713
8.535357493
14.92523001
33.05046393
21.91733411
19.01866428
5.999085936
7.01537777
10.19175395
9.969854911
6.878850532
2.496795639
3.113890469
1.762204438
2.792699094
7.818905556
4.742838395
2.43419266
2.181668894
2.366762638
2.136978497
2.936553419
2.703071111
2.204635968
2.976242919
1.811940215
2.149133047
1.566549605
2.232841317
1.669191655
1.756262604
1.837623996
1.700192943
2.146357484
2.382521276
2.100651413
1.93474984
1.942524826
2.263475102
1.87114951
2.690364134
2.841766774
6.761629736
10.12477661
33.0343148
24.2233493
20.28125683
6.52131822
2.510429953
9.673808052
5.708246902
3.611674218
5.68475281
7.389336553
4.680869502
5.343167386
2.902495366
5.904230277
4.184750985
2.919732093
1.72968415
1.521908458
1.867332333
1.838208358
1.503470884
2.342853844
2.308406727
3.180777423
1.797942664
1.938487916
2.1027088
1.822021088
1.713697566
1.621931352
1.277413836
1.415683873
1.485358849
1.493478429
1.485064208
1.719356002
2.318526822
1.746576668
2.672789975
2.648067403
4.102113157
3.914491416
23.14082709
17.20108066
14.95966038
14.09102491
3.362245239
2.620118053
2.273076438
12.7696292
4.027520087
2.97269133
11.61729243
3.564413406
5.074955664
2.415161375
4.914505823
3.082184205
1.814183671
2.568679858
4.256368775
2.434600072
1.413525573
2.108278028
4.086486819
1.799693232
1.876726882
2.038050857
1.453427594
1.814246296
1.747730255
1.412920861
1.29822304
2.700453107
1.641894727
1.30299695
1.257117399
1.254406815
1.291855727
1.655072374
2.080275221
3.470762139
2.758981549
36.47407769
22.93189563
20.76962414
17.62382279
10.50974689
4.232026086
2.410285018
13.6538637
5.445917205
4.489128479
5.090454418
8.871976609
3.179120806
4.953136387
3.576592335
5.265147493
3.386747015
2.52320194
3.187800326
5.602951855
2.468882939
1.882522075
1.539920932
1.897904927
1.543569396
2.247981317
2.159261152
1.935933792
2.204950487
2.740646994
2.138695752
1.21700182
1.431464458
1.234748153
2.022441072
1.820650416
1.786273916
1.775240966
1.718486439
2.375205421
3.746273969
15.70057754
71.99247468
45.85869901
42.39464722
13.01459868
8.201071882
8.07117591
7.074062017
6.23387039
4.24381365
4.372719999
4.488388247
7.52367563
2.781323881
3.034778248
2.158925274
4.322734893
2.283596965
2.776486137
1.600153033
2.814868154
1.796382901
2.117929487
1.535218002
2.410058659
2.571406632
2.123718119
2.15465847
2.292318139
2.062633316
3.386593404
3.128177559
2.47099919
1.851019986
3.697925953
2.571165622
2.043080656
3.680875252
1.89131422
2.139083869
2.228105048
2.797594754
21.38444786
132.1443361
70.68649679
37.38920725
24.4759223
17.57442746
5.135423008
7.598478836
3.953730318
2.329093851
5.733825751
5.509753926
4.67033907
2.763157198
1.723087031
2.36913659
2.124864197
2.369501052
1.72302971
2.186473447
3.899070271
2.341053924
2.487213602
1.72600405
1.728537566
2.593601149
1.704627994
1.810766605
1.570012084
2.17635288
2.396656837
2.073773867
1.775663312
1.828696402
3.158216282
1.84812843
2.415949321
2.227219529
1.747551958
1.43467789
1.745640754
3.229161995
8.24873536
86.47789775
32.88138355
22.92604044
20.73092286
5.671391132
17.58521273
7.648530463
3.575258128
7.757175026
4.548455733
4.102068805
3.217950773
3.989893584
7.480989231
2.176580129
2.858313277
2.008381214
2.19841544
3.255415918
4.040798463
2.582592243
2.595504716
2.208785249
1.720437889
2.462896286
1.676727471
2.962810639
1.825163052
2.707636429
2.188080155
2.237164401
4.451737194
5.00402687
2.968061361
1.900024901
1.636592533
4.524071797
3.974681335
1.408716936
2.252439739
5.563241358
11.97634357
56.74941797
47.1055017
10.81717389
29.12352915
6.555140418
3.273906914
7.421276432
10.04388106
4.994305693
3.350758907
3.390704289
1.859656104
2.011448731
3.372665052
3.386926513
1.925318871
1.568988125
1.867581913
2.352204828
2.267760309
2.485261578
1.688521768
1.364265959
1.759220212
4.188830288
2.18691209
2.204166699
2.060088168
1.805568357
1.640095959
1.573762001
2.281045482
2.711070332
2.572074039
2.572117095
2.325930563
2.766034946
3.655016233
2.193509311
2.627631446
4.801152836
119.0961451
71.88711129
34.38038844
5.947424898
6.834761404
3.943394271
3.726391012
10.56859949
7.765711323
2.416901563
3.296306947
4.281426647
3.358912145
2.939635541
3.071478393
2.659655336
3.094650327
2.245880088
2.503656388
1.672747056
2.41145417
2.886884776
1.844199078
1.658678352
3.059150827
4.458582554
3.633067386
1.919075702
2.520429033
2.44592418
2.00377368
2.749205355
2.169690087
2.555206678
2.866738236
3.408686421
2.491381909
2.121836399
2.500426238
3.177301812
2.677275617
3.294392354
7.218248283
45.78128468
7.964956325
24.47629385
3.377498494
5.268801835
7.601350176
4.815453839
4.222473429
9.840070015
8.824819488
3.429583086
3.876995786
4.487169714
4.15177281
1.912882589
3.323107213
2.16476102
1.875117494
1.625945983
2.170070034
1.969934318
1.750840334
3.377327305
1.670854271
2.209228391
2.108903858
2.554900928
1.756708038
1.938132544
1.708119406
2.34525244
2.557515968
2.843220235
2.874153226
2.24067325
3.927135186
2.57498457
4.360159358
3.659301045
1.959851297
2.656804807
20.0512066
89.27791791
4.422916193
16.9839535
6.827420989
3.745059838
4.212753287
9.344194282
5.165368928
3.971703825
4.060876728
11.01476845
7.174854979
8.015756739
3.530943505
4.025721806
2.92716721
2.074243913
3.159347804
2.180753742
4.30858273
4.091061117
2.709307702
1.366371746
3.936953107
2.438499952
2.62280257
1.910849907
1.924983375
2.794271129
1.981580756
1.695319792
1.377274951
1.272590156
1.909773637
1.681387041
2.392430932
3.005561132
2.823958999
3.128494405
2.934214018
4.988829611
0
667.3542313
74.46655122
45.83271611
5.294061597
7.080527583
7.057449101
3.424304995
4.828267231
5.011996484
2.380985985
5.372996565
3.40612217
3.423654347
2.666416752
4.580297859
5.726357537
2.546221506
2.600360331
5.809924479
4.300915889
2.079050723
1.767080979
1.659240494
2.090363788
2.403796301
2.682034641
2.179944734
3.634563009
3.611216723
1.783113214
1.357931127
1.297085062
1.494344583
1.268677085
2.63795188
1.73367854
2.224857395
1.737322571
4.185673899
2.615520674
3.194109575
5.602447526
38.18022083
8.449457783
4.687897073
12.53596239
21.3082184
16.99386913
7.595036193
3.106135232
4.7765013
5.157812126
2.943329329
4.142102777
3.022762274
2.295454288
8.219523112
6.465622199
1.771467662
4.03542154
3.114685232
3.950838268
3.496495445
3.036228921
5.084138506
2.441042601
1.6552
1.767436542
2.955435965
3.615148393
2.724822641
3.372874931
1.64402948
1.578901293
1.441557041
2.762819704
3.979161567
2.313437749
1.925237841
2.00785331
2.458697482
2.253763244
4.516583576
9.529302544
13.24149559
9.369572815
33.51452098
21.64447194
20.15717696
17.05630903
4.499410282
3.668628783
5.45386191
4.072208336
5.764447786
3.172462228
2.441493104
2.978939687
4.940878085
2.167502666
2.67746482
3.085602824
3.29715043
3.495568923
2.157037492
2.426410974
3.80294096
2.380170515
2.01716273
1.843083112
2.224103666
1.797367559
3.615008559
1.663265349
2.127015079
3.956114058
1.761990834
2.130289119
2.246511452
3.25857994
2.904066965
2.701976423
2.348374384
2.636140795
3.539451786
4.862514235
12.72563925
49.08009751
44.97203518
38.91812511
32.39377422
3.584257088
16.21044838
4.092569606
8.550800541
13.69543673
3.870764386
2.813908068
2.106608647
2.240167546
2.718473361
1.498500714
3.39677967
3.745720438
4.252815652
2.414939911
3.816612898
2.05450395
3.136714927
3.562611557
2.12880228
1.807005787
1.636318929
2.699678982
2.480637352
1.828173036
3.2970839
2.883286045
2.836160759
1.647967708
1.7379216
3.647958515
2.791983755
2.823377066
2.198948946
2.437816934
3.601102582
8.479912098
74.97140312
54.54155428
25.99335734
18.52739684
9.039633253
9.934345772
16.03054003
12.00529367
6.363564632
2.691898896
3.774507163
2.702719922
2.423893088
2.614937864
3.581182067
2.85912557
2.829814174
3.564538061
2.89739125
2.582874314
4.207565278
4.538626689
5.797673665
5.281365782
2.748830474
2.428535201
3.249449624
3.131604225
1.628659949
1.693702098
1.834016881
1.574509529
1.744269263
1.880835967
1.700943271
2.557499159
1.604559261
5.258693146
3.349415895
3.532534257
3.681417929
11.85976064
212.3713406
53.35060674
23.27082299
17.18073027
10.36784146
11.66439991
11.66514931
9.4347537
8.428684904
4.836411947
3.494223143
2.456912085
2.236739403
3.364524803
3.510609779
3.822751519
3.395067137
2.976322148
2.863073266
2.129102829
2.174973818
1.773731259
3.622447848
2.175182824
1.873912893
1.247567831
1.459869084
1.454524143
1.459477781
2.13704658
2.060914046
3.288155296
1.363050128
2.505182937
1.526035481
2.105019195
2.957981952
2.181104382
2.13754922
3.45244918
3.74850824
4.338837089
13.23577083
28.60248723
19.1533945
15.85471755
17.59374737
11.25346709
5.332486817
3.947937696
4.583285624
7.274658966
5.220950699
2.081383977
3.562971548
4.264580779
2.221000736
2.958675931
4.165873478
2.255908437
2.164566101
2.701620344
3.235271087
3.372887922
1.867978038
2.060052237
1.919839358
1.724675483
1.673480853
1.923900031
2.4813158
2.66683254
1.608033888
2.855608706
2.777315552
4.007682686
2.247052065
2.239375412
2.375594819
1.906474985
1.26254269
1.82717162
3.054008696
5.989782166
5.422890549
4.200377739
6.307691197
15.38593011
5.905818584
3.054738992
3.39404338
3.915306255
5.34563162
12.00756801
4.538104555
2.790513213
3.557252363
3.087843474
3.794662683
2.049934201
2.93159834
2.13978685
2.799200201
4.813842553
2.779092029
3.000147563
1.956408464
1.772895684
1.395975292
2.71788202
3.43061657
3.286074995
3.584964889
2.931303281
3.07252632
2.082466033
2.006528994
2.343449706
4.908730755
3.254475313
2.941655949
2.742926905
1.761119378
5.794909823
4.59106216
6.788329121
8.787517305
49.46155685
38.86672709
31.35423581
8.91656712
3.955505796
3.372857539
2.654712807
5.126123538
4.47586099
3.521553689
4.051935704
3.378992826
2.948458042
2.871105347
2.615566888
4.975457309
5.373176936
4.475829991
3.7436914
2.307362641
2.66491606
2.455116124
1.400156549
1.581682856
1.524125824
2.473730348
2.345477941
2.4919065
1.385768898
3.532893806
4.319532265
1.829705054
1.604354376
3.631421422
2.420902627
2.177044154
1.258216069
1.761979868
2.282979193
3.473685237
3.530877169
5.307938093
17.23086815
32.73806879
28.79808266
7.687537314
9.761351918
6.835968858
9.440411783
4.873458765
3.747095337
3.519148958
13.86443405
9.760107987
2.652162366
2.127098338
8.484286391
5.999427061
4.127337813
4.178095676
2.567342273
3.117203679
1.916583301
1.680899642
2.449868204
2.094512265
2.393687832
1.629460088
3.561938095
2.465361603
2.401449054
2.491562708
2.434991544
1.88262242
4.158630697
2.849836153
2.397844157
1.926267412
2.265981493
1.965610227
3.043715273
2.467226689
10.75574441
58.5378478
5.911784348
26.66588728
28.21843444
6.327666138
22.52820694
18.81860999
7.915155907
2.53099481
2.86942246
3.466634342
3.979071456
3.668371365
3.018155834
4.755777547
6.583552761
2.981517338
3.020482075
2.462583577
2.165236098
2.139557006
1.431502525
1.850849774
2.156289295
5.481694299
5.727652055
2.545573271
1.878314863
2.382546468
2.751758567
1.751596245
1.628182457
2.233363066
1.972825838
1.690206968
1.282039481
1.437391496
1.725899767
2.298384095
1.761052655
2.34548007
9.596118799
157.6446243
9.402131037
68.98286804
11.48561792
29.56229624
26.56409794
5.023920845
3.295200442
3.299632634
4.068036028
3.512894955
3.253318456
3.012013439
3.336500599
3.726693623
4.705276885
1.583920661
2.424994553
2.369751968
3.376137503
3.637160745
2.138263283
2.55917444
3.196420585
2.006668517
2.533460482
2.452954756
1.648194945
2.734006264
2.563974853
2.655608278
1.674741403
2.25552388
2.107606326
2.085218264
2.045387013
1.153589638
1.771281111
1.863609874
2.273927486
2.936594302
28.47208293
58.1654349
5.251564033
21.09694915
6.947038803
18.75843509
6.286972197
4.471557428
4.401257167
2.883898262
4.333158985
4.22231085
3.713243124
3.4098218
3.040036174
2.593618008
3.749282584
2.746935138
3.230519779
4.714491
5.177037159
3.515361389
2.614016588
4.233309895
3.858001153
2.984945206
3.601263775
3.851879875
4.593741383
2.05478007
3.439931964
2.403439
2.695474517
2.797886167
5.357463034
4.027964497
1.836242286
1.339522196
2.355131405
2.96306811
1.791022489
3.067460492
24.98258944
154.3509538
20.72303884
11.38283866
35.33387767
27.94453187
22.77445845
13.35703681
5.581215814
2.980596775
2.94119896
2.281271378
3.18190889
5.54846208
5.444474655
3.603155097
3.664190362
2.194431481
4.547658028
2.519069251
2.627307247
3.03396251
3.593392522
3.690670681
3.821889754
4.132509969
2.670164299
4.464664814
2.607589312
1.719327772
2.244939705
2.040718651
1.844856774
1.518825891
2.00252845
2.994269109
2.767918122
2.250969669
1.459150649
1.769539333
1.588947258
2.198478238
17.01981668
242.2078542
44.27467151
21.22631356
17.32030856
11.62082022
7.068965821
8.523923784
3.031833597
5.895995028
2.829391752
1.963255978
2.840213397
3.346212703
3.537885898
4.226950129
2.908660478
2.080082045
1.836392491
3.512814975
4.115113259
3.253954123
4.608027071
2.1072162
1.68574585
3.052891919
2.896340981
1.870469612
1.810180578
1.527136633
2.62725299
1.606669348
2.028473851
2.962291244
1.590978248
1.365371668
1.6374517
1.860789569
1.830147724
2.277908815
2.383173246
3.207677802
4.080131381
48.66863112
38.05849614
26.32077709
26.29606075
6.177725313
22.61321867
13.67521908
4.555620439
4.270302149
3.164087365
3.188121178
7.98426651
4.499073885
5.468126858
8.503796081
3.001416706
5.791081794
2.09591029
2.792245908
2.813657642
1.673285373
2.244666834
1.795604828
2.604384511
2.060090437
1.409593113
2.500157697
3.21099485
1.782687486
2.010172495
1.84581079
2.167112385
1.391656518
1.281647421
1.455328199
2.824978612
3.199893146
2.067702865
2.893292757
3.381557778
4.671843573
43.30458111
0
76.83038592
73.07769731
33.52998321
21.24335338
4.414527304
17.13088141
4.561714917
4.550282714
4.484286946
5.56570687
4.87703998
4.791570583
3.050030112
1.971066121
3.479988444
2.943913783
2.667163711
3.150015833
1.992795417
5.845456301
7.057660306
1.964546421
1.705183163
2.161620427
1.264401857
2.29597514
2.611457304
2.021167457
1.738832908
1.158855664
1.255484164
1.665480517
1.908319172
1.670407229
2.168895654
2.333902112
2.502323668
2.380438229
2.667164246
2.053105039
22.68583833
52.78543129
41.15550701
28.51824207
13.8159768
14.61891525
3.463524676
4.523185729
2.827029019
6.322768243
10.93373536
5.009961229
7.387436912
2.794127959
2.144378576
2.633958058
2.708034665
4.105610585
2.591442545
4.540710937
2.323557536
3.234852645
4.918868846
5.209294921
1.921540603
2.917287778
4.463208091
3.756207786
3.635165752
3.698769559
2.086308244
2.285599619
1.925916718
1.763954912
1.625897051
1.503381263
2.953077893
1.69590051
2.038107354
2.447346436
3.001007443
2.769921389
13.17536661
40.13262571
32.97638452
22.47572091
18.96144306
4.486309371
7.73487369
12.15806408
12.05947523
13.43594211
7.754347889
5.920488116
3.04018303
3.411995373
2.410251528
4.962843892
3.285276704
4.207075969
3.693002562
6.216943447
4.266564544
4.200930792
5.141813796
3.380244462
3.192250241
2.257193615
2.628273908
3.13761113
4.360610159
4.523776863
3.328841195
2.635357775
5.774763709
6.685540664
2.228722148
2.366085205
1.796073701
2.188725606
3.636818113
2.429397265
3.624022471
7.134056749
0
96.6741848
62.48365403
58.45403638
7.540019704
12.24486784
5.895350806
4.97195693
15.71047174
4.254248882
3.058783897
6.104845501
3.047437101
4.398025705
9.317159115
6.674792517
7.623041778
10.06500376
5.138323372
5.633904282
3.740143422
4.432860318
2.148442737
2.69785376
1.97088678
1.519100233
4.804756269
6.377337895
4.765857482
3.164332114
5.395977504
3.009734755
3.117835426
3.698088017
2.671683358
3.335292098
2.344901406
1.325768091
4.712259062
3.620357253
3.307164966
3.326652727
4.504793505
3.373642558
9.357975097
3.534614861
2.119223313
3.981052494
5.292416512
3.204930595
1.589965876
1.304744811
2.234117843
1.686540802
1.168939091
2.624559327
1.845961398
1.861643068
1.595885359
2.058572552
1.877577503
1.559889143
1.467747727
2.400498257
1.64437892
1.281759692
1.404834168
0.998841798
0.7812516571
1.126894167
1.655036638
2.018945727
1.541512581
1.593695847
1.444128259
1.601926974
1.484581842
1.659661515
1.713822816
1.354217338
1.66008366
1.395558076
1.675292845
1.734734239
4.41957034
3.139945832
1.688968999
2.335108759
1.624272785
1.176927575
1.364624652
1.043705683
1.200051715
0.7643750242
1.94336374
1.523820032
1.078336619
1.754368557
1.916692823
1.285413398
1.096535423
1.518576009
1.251992322
0.963464631
1.165952741
1.060171165
1.374734072
1.13364934
1.192689769
0.7936196423
1.072061876
0.7773630092
1.232697332
1.181970348
1.142210691
1.454674649
1.200956664
1.081501529
1.373556507
1.099938409
1.546168792
1.643470693
1.511354248
0.8949683059
1.249557873
1.292891001
10.76779691
4.106878295
2.437671437
2.421314065
2.393015022
1.932925873
0.8749882677
1.205947296
0.8522994135
0.785467553
1.076534284
1.124834982
0.7392108872
1.140444936
1.720899562
1.281573767
0.8810969087
0.7779456455
1.003215578
1.00226953
1.036806109
0.8911720882
0.8458250219
0.7518789797
0.8083488433
1.131160689
1.085826793
0.9479397881
0.8041820024
0.9487006187
0.9284950407
1.441044415
1.652004225
1.354642256
1.294209626
1.192643945
1.081911316
1.197504675
1.278263648
1.060034967
1.16575617
1.348191881
4.131513529
4.744781591
3.063930747
3.034025692
2.227531358
3.037278269
1.763168554
1.449653249
0.7967177743
0.9313302533
1.347421629
1.061690876
1.005661525
0.7005440747
0.848387499
0.7984487812
0.7347748594
0.7656125276
1.274876825
1.034774049
1.112156283
0.8770074808
0.9673363456
0.7664284853
1.573762692
0.7790250725
1.246973241
1.246179336
1.077396919
1.066832811
0.9479863061
1.02462066
1.113146871
1.469410571
1.333199568
1.296865275
1.253833907
1.243169366
1.682926087
1.001520031
1.058417377
1.849915146
3.936462127
2.167627202
2.731125916
2.885857747
2.054821785
1.684465603
1.070751575
1.905176066
1.033054552
1.088169906
0.916599119
1.19631149
1.478628889
0.9199685564
1.091967343
0.6159946214
0.5827652283
0.6399725038
0.9660272441
1.015257165
0.9030076947
0.8039140814
1.128264481
0.9061169419
1.670371259
1.219422435
1.020571041
1.426580499
1.570912639
1.769716947
1.209540135
1.568897294
2.429247646
1.522995137
2.28190811
1.902647749
1.073815859
1.062364256
1.244150644
1.380513952
1.401468881
2.128690442
5.554830965
2.537431315
2.367184673
1.77551782
2.075941926
2.571767386
1.013987151
1.789135341
0.8300622546
0.9622369029
0.9765445207
0.681814532
0.6113639909
0.6671001282
0.64114826
0.4939964362
0.3784257301
0.518461323
0.8335161746
0.8854400508
1.315587749
1.218512484
1.155871721
0.8509289056
0.814152822
2.003324327
1.431009129
1.455535338
1.682208079
2.26266276
1.395168102
2.667620618
1.683152834
2.047824909
2.564981096
2.05585773
1.20025743
2.05289703
1.988073172
2.140751001
1.736595405
1.501169271
3.173037357
1.846774563
1.484549067
1.585712569
1.15024015
1.644871452
0.7301815447
1.443394834
0.8222281395
0.9039234172
0.7890782069
0.672827456
0.5701302045
0.5596176143
0.4184568008
0.4795886696
0.2002406744
7.084300208
6.280700265
2.071683802
2.064462663
0.918495854
2.66054088
2.271193401
1.74303741
1.956458893
2.093037489
1.835283721
1.725015023
1.409999944
1.957365515
2.081141759
2.3110097
1.711401568
5.531683203
2.196050577
1.457493743
1.139979938
0.900117242
1.054353711
0.8291821481
0.7223215368
0.6052272522
0.4451668644
0.4641260782
0.4561472538
0.3550474199
0.3798922629
0.2703415618
97.09991591
2.65001534
3.043721715
3.34770511
2.35082844
5.328906166
2.328391233
5.410758414
7.293418721
3.427590173
3.06819837
1.87266883
1.740090237
1.683617668
2.688446086
3.452731619
5.702937688
1.873122864
1.14233174
1.092982939
1.01126155
0.6841288356
0.4785202263
0.6185784805
0.6068645125
0.3671577632
0.3739442509
0.2239406641
0.002658536279
0.002831245037
0.002776237032
0.002811558221
0.002827587552
0.002753835073
0.002695250266
0.002650468098
6.085794957
2.947755867
8.034479569
4.775251209
4.353215125
13.20886693
12.97549234
3.203362028
3.787599306
2.844996724
3.499409815
4.412946235
3.918354829
3.212230808
1.769431204
1.517300774
1.335476135
1.126585123
0.902358842
0.807830252
0.6080192199
0.5218316626
0.3530589043
0.2333769049
0.002699322139
0.00286334711
0.002945914936
0.003111673322
0.003089330887
0.003142519302
0.003115125073
0.003125134488
0.003044737372
0.002887853672
0.002722128982
0.00265614493
0
12.17250406
29.15712497
13.37614006
5.341963047
5.474002027
2.987593148
3.714351192
4.944045772
3.600052458
4.540539274
3.394917409
1.844734689
1.845716669
1.045955526
1.091378787
0.8663792065
0.5557656015
0.502551607
0.3400436765
0.2150858147
0.002581506401
0.002842234289
0.003016496891
0.003279511978
0.003317291421
0.003395851879
0.003443282113
0.003476704706
0.003406765279
0.003438484293
0.003345150531
0.003266581016
0.003050540849
0.002951194041
0.002784242661
0.002558348028
8.568383595
41.00674216
33.27150207
26.94775367
21.10384888
18.99561866
7.155155947
3.996075136
7.654236272
5.920956835
4.219554525
1.874090081
1.49494357
1.000473436
0.8785857812
0.8581883222
0.4540504262
0.3850165431
0.2937456594
0.002681058301
0.002973468979
0.003245241543
0.00335083257
0.003480037163
0.003572715086
0.003717436736
0.003707246622
0.003661217816
0.003721579608
0.003646505571
0.003635438495
0.003640089757
0.003486611388
0.003246607414
0.003111754797
0.002824523687
0.002629146377
0
0
91.98386046
41.34223934
8.347153995
3.147241683
9.960725247
3.733777122
4.502314088
4.139619996
1.263842519
1.565173936
1.140182833
1.12574744
0.7002982572
0.4142998185
0.2890246201
0.2259140915
0.002747421433
0.003052071456
0.003269498105
0.00353913428
0.00363513127
0.003663614539
0.003662204723
0.003771482041
0.003666437179
0.003612295687
0.003769877877
0.00368616531
0.003688274076
0.003676240006
0.003679007594
0.003506473242
0.003385320799
0.003108218523
0.002953093459
0.002626899166
193.51787
118.3595494
80.69906071
39.61665686
3.970655831
4.895114318
2.349947269
2.356292786
4.67789282
2.927319876
1.813341025
1.235922666
1.669018384
0.9188964871
0.6737817182
0.417065487
0.2218221126
0.002707157811
0.002893809553
0.003200503317
0.003531820021
0.003642857459
0.00378568862
0.003784079565
0.003651312541
0.003584328815
0.003317636865
0.003322860749
0.003330460983
0.003360086097
0.003488822685
0.003669689568
0.003641718186
0.003699669378
0.003561706417
0.003406182322
0.003143735535
0.002767506364
0.002491429947
254.4899161
73.23812671
31.77800028
3.025172877
4.977674514
15.97208905
20.09474657
5.490887446
2.364408878
1.737388991
1.333000564
0.8914766607
0.8103345161
0.6689998032
0.4857096331
0.2646713722
0.002813386096
0.003151612294
0.003410453141
0.003534538582
0.003780664576
0.003738146929
0.003437678029
0.003128504967
0.002869903521
0.00262877442
0.002552060864
0.002527824333
0.002689142747
0.002881013276
0.003184146961
0.003521354587
0.003668365081
0.003644447187
0.003628190135
0.003297520024
0.003087818132
0.002664560694
0
67.03008378
10.26439088
47.94894386
22.9488789
16.39568897
5.851666464
9.452912899
3.045803077
1.827606924
1.235098379
1.09535807
0.9976104875
0.7515716395
0.4465681356
0.002687042712
0.003045626606
0.003349473568
0.003589896618
0.003704260938
0.003697826064
0.003397918945
0.00302941637
0.002525523277
0.002086225114
0.001831838902
0.001706732963
0.001693543958
0.001848174427
0.002094098939
0.002491389592
0.003012023571
0.003384894361
0.003687025678
0.0037432893
0.003537185836
0.003210772442
0.002859974471
0.002568760059
637.3453658
27.87877684
46.89787892
30.10885796
2.49807769
14.94283103
10.81274036
5.285726809
2.013546686
1.475883037
0.9907307559
0.6775242974
0.4268538922
0.2750090848
0.002763404076
0.003183041959
0.003553752318
0.003762424055
0.00377588696
0.00351378068
0.003041315474
0.002388552831
0.001834790858
0.001420823211
0.001166756483
0.001051129991
0.001049373159
0.001153967315
0.001411147641
0.00178183729
0.002349242535
0.003066611729
0.003526658584
0.003753628829
0.003676043316
0.003391884887
0.003096714699
0.002727059895
206.2585625
50.65105321