/*--------------------------------*- C++ -*----------------------------------*\
| =========                 |                                                 |
| \\      /  F ield         | OpenFOAM: The Open Source CFD Toolbox           |
|  \\    /   O peration     | Version:  v1706                                 |
|   \\  /    A nd           | Web:      www.OpenFOAM.com                      |
|    \\/     M anipulation  |                                                 |
\*---------------------------------------------------------------------------*/
FoamFile
{
    version     2.0;
    format      ascii;
    class       volScalarField;
    location    "3.989";
    object      mct_N2;
}
// * * * * * * * * * * * * * * * * * * * * * * * * * * * * * * * * * * * * * //

dimensions      [0 0 1 0 0 0 0];


internalField   nonuniform List<scalar> 
50792
(
3.937701094
3.696151727
1.819766349
1.785402222
1.373277692
0.9284083792
0.7556350003
1.034985589
0.8189211834
0.8941990506
0.7642036619
0.9547516245
0.6119257421
0.7359862133
0.6195450954
0.5270408293
0.8128970223
0.8543588768
0.6428462669
0.751200359
0.4887708338
0.4892802589
0.7272137435
0.5989712989
0.4491230017
0.9130947492
0.8253150106
0.4026622339
0.5684809791
0.5423574398
0.4286509343
0.5432813763
0.6334007061
0.5020373443
0.6331537388
0.530334782
0.4374680459
0.5734027318
0.5255507912
0.4603170228
0.4177228491
0.4164415263
5.583596901
14.95585239
9.892318686
2.961158782
1.463602814
1.409921951
1.778759381
1.571739142
1.317508256
1.284895206
1.222200976
1.285549469
1.124915306
0.7313025221
0.6078774936
0.7181710807
0.8097938405
0.7794214849
0.6782852318
0.7647932869
0.8203543203
0.9303388996
0.7073877549
0.5514471686
0.4568259326
0.5341063355
0.5894284935
0.4935706972
0.4903771063
0.5178190002
0.479356488
0.6071539487
0.5533714746
0.6106481123
0.6858383154
0.4723652664
0.5835574524
0.4485929079
0.4981935218
0.4685582772
0.7844397826
0.7676389093
4.783294998
14.09409275
3.639940111
2.336453594
1.918317004
1.32058269
1.216270334
1.436197626
1.164866757
0.961111941
0.7303357523
1.239383948
0.6439402593
0.7766571349
0.7178616253
0.9589522917
0.7082218041
0.6077390136
0.5123146622
0.5203598318
0.5723911797
0.7312685731
0.5021143887
0.507796332
0.619080136
0.5021779696
0.5534228656
0.9623386473
0.503606784
0.4665164538
0.5408784386
0.6629391293
0.5805961375
0.4599772215
0.4853453278
0.5014181289
0.4587972151
0.4161838989
0.4144863652
0.4777138571
0.6055348077
0.5767667673
5.725435853
3.226532504
3.214784122
2.437200607
1.70858747
3.258228011
1.592346588
1.757214285
1.594964094
0.8895043985
0.6937450466
0.7742551101
0.5646385829
0.8862152564
0.6900226508
0.5133746615
0.6465689558
0.5678318269
0.7404152554
0.461507832
0.4512986201
0.4782022733
0.5902649043
0.427835285
0.373239622
0.4749482125
0.5469611071
0.6029155992
0.4495731273
0.4045267514
0.5621349086
0.5198690965
0.6455949065
0.5827852641
0.5036639472
0.5539862875
0.5373720683
0.4640624996
0.3925042426
0.5179463868
0.5252660153
0.5155057953
5.572197801
2.578050779
12.627424
2.797785821
2.565763534
1.91147405
1.043138654
1.439894984
1.552807144
1.009204137
1.179935999
1.751953833
0.8929053293
1.050476044
0.6543468301
0.6499043534
0.6277835793
0.5432203709
0.4839036028
0.4829379797
0.4913704773
0.3590743169
0.3996253941
0.4866197533
0.3761356484
0.4514919622
0.4987883536
0.5411579466
0.5468153755
0.4653027755
0.4502347509
0.7584276813
0.5544956004
0.6284597693
0.6116595619
0.4742359962
0.5215470937
0.4414076175
0.4123649724
0.5370128421
0.5047597996
0.5912513433
2.164131497
6.641338843
2.035709844
2.617846415
2.609234956
2.052169317
1.947044617
1.770789087
1.283923079
1.439378977
1.354053754
0.7135348374
0.888690924
0.7644306479
0.9058635749
0.8191106768
0.7443060694
0.7702945765
0.4980378197
0.5028987444
0.4754000763
0.4413681491
0.3570936813
0.3994593872
0.5606953494
0.5122542888
0.5170536531
0.4426695146
0.4248055205
0.631741251
0.4155531065
0.6513014638
0.5350052396
0.5696709238
0.5794275722
0.4525002882
0.5658152724
0.5250820236
0.5847630529
0.5507006965
0.6124415088
0.7352808586
4.052920881
15.76225042
3.671621179
6.883410191
5.813064601
3.699777379
1.041899918
0.9598403546
1.184571422
1.344434496
1.042411707
0.9168112274
0.7887825067
0.9139080963
1.093058101
1.073015557
0.6371403834
0.7265980553
0.6889834122
0.5110636672
0.5620314643
0.373350143
0.39142235
0.4948807756
0.3972289016
0.3984019449
0.584385671
0.4886869914
0.6651017751
0.5507079277
0.4094702244
0.4245381711
0.5238652782
0.521660584
0.4565984125
0.5978965969
0.6127820878
0.4449131542
0.4744041493
0.3999043054
0.4729797786
0.8998491767
3.166132061
5.63217699
12.01237646
7.222255711
6.2745827
2.605574823
1.208832861
1.336911059
1.333116351
0.9761945126
1.098358007
1.170803558
1.151346681
0.7983527129
0.871051223
0.5952576506
0.4668316978
0.5309667492
0.6386472766
0.5520919365
0.8089751909
0.5893498968
0.5167494085
0.6209939232
0.4661689959
0.5047878772
0.4503568506
0.5540778803
0.4699472228
0.4679779567
0.4305129349
0.4925952697
0.5220740579
0.5773154952
0.4988385674
0.5843167283
0.3959765525
0.3660305185
0.4314933352
0.5027101278
0.5458424356
0.6076460743
2.873578206
3.39968412
2.029472416
1.777884453
1.287598412
1.168694187
1.372394711
1.104025946
0.9240289963
1.054536578
0.9860630757
0.853992727
1.071400577
0.7073115695
0.8179015731
0.6336798495
0.6265446327
0.7517148256
0.6194431212
0.5691726926
0.6572596152
0.5058070599
0.75141209
0.7578790421
0.4962168383
0.4181498952
0.564839822
0.5017347139
0.5796496788
0.4882511307
0.6914934824
0.5193866094
0.4452365608
0.5468545834
0.4408630316
0.7481097827
0.379514218
0.3849424942
0.4596805948
0.3729601307
0.5446131743
0.7732453585
2.252613235
16.9973932
3.382558619
3.548927111
1.199314525
1.249258019
1.659919502
1.072759803
0.8484779936
0.8459207664
0.8818355489
0.6257424035
0.7862178914
0.7382123745
0.7761156705
0.5812856333
0.7388067862
0.5734756849
0.447797233
0.4652645952
0.4055886168
0.5927608541
0.4364006036
0.6383465683
0.524453188
0.6547237592
0.4892685954
0.4776616645
0.4705758422
0.4597623151
0.4894200197
0.4569198592
0.6315928778
0.5133010245
0.5788092214
0.4743116711
0.3879593293
0.389262647
0.4961689252
0.3957627547
0.4477691335
0.5633908028
2.143768899
13.99275965
8.115472509
2.03798339
1.121446292
1.007212847
1.874033657
0.9924270856
0.7871279057
0.7825726229
0.7516085499
0.878531196
0.887606896
1.131791405
0.7539059616
0.6539739746
0.7045869157
0.6657114814
0.7400760914
0.5532725121
0.5656964046
0.4274672026
0.4828181569
0.5240710276
0.545159148
0.5642747738
0.54703683
0.4649441891
0.5454608061
0.4964628798
0.4642464514
0.5956251545
0.4435312984
0.498693194
0.4662349758
0.5480740166
0.4034991709
0.4301091329
0.4132372128
0.4719050859
0.4463153987
0.6860541259
2.934108495
4.126381757
2.908562769
2.18960042
1.845641686
1.002384885
2.782140654
0.9539147104
0.7464530154
0.8664898077
0.807880403
0.5786186397
0.6803765533
0.8271994107
0.8835649832
0.740621418
0.6472166955
0.6540044817
0.4567275395
0.4791770219
0.5588439641
0.4814517147
0.5322932007
0.6509821233
0.6660628637
0.6420660685
0.5197098299
0.6208328346
0.4311977699
0.5771585415
0.4484921782
0.5150148886
0.4815430405
0.6774183251
0.6899516931
0.6210266941
0.6290592145
0.5064864977
0.5117198985
0.5300157678
0.5958471254
0.9257784108
2.569399434
15.97474608
10.47090104
4.372712404
1.980788471
1.239127914
1.712881912
1.232411876
0.915708073
0.9844351981
1.496594881
0.5782605354
0.6730652823
0.7195462816
1.158733256
1.0532315
0.6709561727
0.7357165294
0.5993582613
0.4898744614
0.6185717413
0.8834420969
0.5037947642
0.5647273019
0.5251632335
0.6014171352
0.5957027276
0.456528878
0.3726097749
0.4202821462
0.540844781
0.5300129129
0.4660111371
0.4705859105
0.4940568929
0.4721576738
0.4589571965
0.5908624009
0.5575299611
0.5789024809
0.5310105794
0.9532951345
2.85633485
3.312354183
2.514734634
2.13768088
1.386545437
1.192454586
1.615426768
0.8803149987
1.171265878
0.8640601804
1.04268414
0.7804083367
1.178716017
0.6481621529
0.6873411524
0.9891542982
0.8236402568
0.6771063795
0.79857511
0.8390043324
0.6709484257
0.5640000031
0.6199224276
0.4113652303
0.3973914277
0.458127679
0.4275805768
0.3805487531
0.4193517509
0.5575696703
0.5210858361
0.4694036835
0.524592539
0.5429709938
0.6245141324
0.3941078333
0.4563656027
0.6124402339
0.546069985
0.5837702855
0.5103836151
0.6834516162
2.030932434
7.132807107
2.998088254
2.051366391
1.923396375
1.586266128
1.07547611
1.292448818
0.931576503
0.7734841564
0.8821456495
0.8500572672
1.003840199
0.8507628626
0.6828487643
0.7212069716
0.9703417524
0.6342870808
0.543111525
0.5780242024
0.7484833034
0.6182832785
0.5610932994
0.4955873681
0.5170655286
0.4951305103
0.7086527583
0.5581143391
0.4891712125
0.372158656
0.4073668378
0.4635746133
0.5833274066
0.5892151303
0.4528728241
0.4803555472
0.4485951548
0.4250856485
0.4614176028
0.7112097058
0.5576221177
0.8482336512
2.397971839
20.55067046
12.23559474
3.945094793
1.555513522
1.535008524
1.54950614
1.0152456
0.9802246417
0.8151286932
0.8445701258
1.032754788
0.8951381869
0.7052115648
0.8133233313
0.7166504901
0.4659549965
0.568422832
0.5848034049
0.4826567529
0.5246053264
0.5115622831
0.6781404123
0.5912505221
0.559656237
0.5390696785
0.3951218013
0.417366971
0.5253423567
0.4427475929
0.5053304783
0.5848073867
0.5025268045
0.6442372968
0.4129148707
0.634298866
0.4775515802
0.5798479198
0.6320087821
0.591523821
0.5829312624
0.587899316
2.944457405
15.06166161
10.30234162
4.578110945
1.972239904
5.006890135
1.674640839
0.978074343
1.102978737
0.9074519944
1.817110187
1.054391851
0.6639353665
0.9735737325
0.885779012
0.8049526581
1.023260246
0.6681798419
0.4547800778
0.5866544739
0.6750398931
0.7099014593
0.6199777778
0.5443689953
0.5344900878
0.6404613571
0.4455651615
0.5459230291
0.4703886205
0.4863584981
0.5018658684
0.5223281151
0.4633661688
0.4209593702
0.3387335385
0.3831452106
0.3630585709
0.4340903778
0.4678751106
0.4017876978
0.542115607
0.8625657436
1.896082238
4.798442448
6.595271818
9.415528706
2.49176169
5.213612249
1.478870845
1.445348695
0.939212374
0.9050311426
1.048671656
0.9673421146
0.9805174665
0.9270853125
0.7392362424
0.6551626839
0.7187041611
0.6614771441
0.4330105929
0.4261032127
0.5613330917
0.5734840246
0.6266399622
0.4549710284
0.6470141042
0.4923500926
0.633153995
0.7092168312
0.7479534044
0.7050293333
0.5749146934
0.5878627744
0.5698870739
0.5440140647
0.4598153618
0.3969558206
0.3728646318
0.4619068345
0.4209715315
0.530555592
0.537768188
0.9333728977
2.405235856
23.23678928
3.01988504
7.689824883
2.288918942
1.500230654
1.078111336
1.657826405
1.07249389
0.9033195982
0.7326529342
0.9401033859
0.9068745037
0.716261227
0.5303032953
0.6413156008
0.6878627893
0.6612683412
0.5707296786
0.5028610048
0.5923413639
0.5604527396
0.6076708564
0.4167179721
0.5299009491
0.4959252975
0.3799814918
0.4447384896
0.4476364306
0.4178338698
0.4645908894
0.407106952
0.5176508962
0.5020767184
0.4515117114
0.4366105056
0.3795902494
0.456061344
0.5396126057
0.6042748312
0.5654067306
0.8446626793
1.695928172
7.32233553
3.987430321
2.62356604
1.472340662
1.773521711
1.3154099
1.417008064
1.411662808
0.7510611209
0.6093974391
0.8557437679
0.7508060319
0.6659044463
0.7136863988
0.5575984951
0.5601676947
0.4935119151
0.9449714596
0.5092217548
0.5034569259
0.4986565826
0.4869265501
0.3802587397
0.4129245859
0.4038646544
0.3759929494
0.4240070503
0.5180473589
0.5035435589
0.5513719761
0.5930069633
0.5712134561
0.4473197318
0.5732250199
0.7026557332
0.5128030208
0.5408002943
0.485572604
0.5557700864
0.5806472226
0.6398690777
1.181231974
14.25731913
2.828387426
1.927971785
1.723369283
1.879123771
1.260057399
0.9532836013
0.7597715283
0.7098710145
0.8393522723
0.5600323856
0.7451507469
0.3825007719
0.5878395013
0.6017666435
0.3688105795
0.4371812751
0.4948340505
0.4548533183
0.3533141649
0.4393603017
0.500350972
0.4541594399
0.4784969172
0.4943798776
0.415558518
0.4342885948
0.4331595307
0.5438640974
0.5163922433
0.527251125
0.4816219833
0.5496914433
0.5686358296
0.5112173064
0.5743321625
0.4815296091
0.6073149528
0.7702126238
0.6405167178
0.7407029904
1.793079799
18.46144957
4.451750603
2.396223763
1.986736156
2.247320397
1.456930713
1.324899005
1.489013913
1.228805339
0.9696740458
0.7262600768
0.6049011287
0.5699693131
0.4161737602
0.4956099931
0.5235001105
0.4519510184
0.5657556784
0.539843185
0.4509996219
0.4652967234
0.3895483069
0.4312577119
0.4847403461
0.4646910142
0.4336220724
0.5277620726
0.6462560576
0.4952299636
0.4548601888
0.5172615597
0.5101415331
0.4657282298
0.6002775509
0.4573357327
0.5297544802
0.4544110009
0.6841678919
0.5296713102
0.6365266917
0.8914561217
3.999734704
9.09305502
3.018082693
8.626670565
2.446740221
1.807967403
1.827844617
1.46226036
1.494314691
0.9947136022
1.150814342
1.133397982
1.062785542
0.6424754291
0.9497106598
0.5557592408
0.5498276829
0.5045801637
0.5539971325
0.685074789
0.6209694161
0.5988976223
0.4673528005
0.5887318687
0.3661550712
0.5691168537
0.4754253254
0.5040761556
0.5796224438
0.4499079551
0.4343690847
0.3506695883
0.3888537564
0.4829652947
0.420825481
0.4659034615
0.3880209116
0.3784043877
0.4812104425
0.4938534895
0.6205076912
0.7907312303
2.075660585
2.433267944
10.34814697
6.705128014
1.6660773
2.266637045
1.768991229
1.541690364
1.335713099
0.8449685374
0.6949495603
0.817281611
0.6402001901
0.6856777309
0.6947052201
0.6597010077
0.5350425533
0.5037124956
0.4895525884
0.755903607
0.7043837991
0.6251852862
0.5274631632
0.5958736426
0.4010497585
0.5137807849
0.4819144156
0.6016740206
0.6025080476
0.7657536585
0.5731335585
0.4900687162
0.4615076917
0.524681064
0.5292041215
0.5299332626
0.4983749035
0.3978878842
0.4856750869
0.4493038133
0.5753648648
0.7062254817
2.138981122
21.71910225
12.29247155
2.995705339
4.15146669
2.601470664
1.458896104
1.984043998
1.372685956
0.8182231739
0.7414078109
0.7140398918
0.6416377427
0.7897522497
0.5547247244
0.4762537746
0.6104288038
0.5189064227
0.6427689699
0.457147313
0.7234358496
0.6395262011
0.5920162609
0.5169791085
0.5073366556
0.4549704816
0.5422573679
0.5298801687
0.5562206256
0.5363637691
0.5652494652
0.4479612071
0.4334453003
0.4496630481
0.4991037245
0.5128493831
0.5730467843
0.477078868
0.6459721896
0.7360378751
0.5786100604
0.7579810008
2.805313879
22.70530944
3.511999346
6.96523083
2.118330799
1.332159364
1.190218184
1.138056804
1.366120548
0.9545658041
1.28776226
1.050911628
0.6645884671
0.5825243211
0.5290881725
0.5056152242
0.64384542
0.5532971862
0.7092592611
0.5761196214
0.7354660188
0.8203411936
0.5202932107
0.5138976381
0.5235305706
0.5196209629
0.4206831741
0.3998553629
0.4235660484
0.4360530566
0.4538647372
0.5444523615
0.4072925322
0.4541315677
0.4353298373
0.5083924678
0.7010467963
0.558560895
0.4780468165
0.5199028657
0.6925541231
0.4414982711
6.225715393
6.813591371
1.826135953
1.442101484
2.19218258
1.605703281
1.982215867
1.540325781
1.39558285
1.412469077
1.136291291
0.7812116118
0.8784833507
0.6208956473
0.6333607537
0.6247041977
0.4506309966
0.4571566811
0.5062201859
0.4257140961
0.4616530008
0.6171756301
0.5668598895
0.5346172807
0.4228309907
0.559377213
0.4495585873
0.4467152891
0.3737582459
0.5508259419
0.4263374632
0.439239956
0.4865222028
0.4417778524
0.4932020745
0.5093044001
0.5035032004
0.5942106047
0.5444994066
0.5806122835
0.7825371705
0.5410590873
2.519552983
3.195140533
3.350869707
1.421951607
1.389103221
1.03232112
1.331100168
1.431658229
1.256233048
1.425799195
0.9365941097
0.7723295081
1.506091898
0.6459418079
0.6093312182
0.5842601044
0.5087206353
0.5096324764
0.5637927945
0.5141645099
0.4333388936
0.5602745692
0.6218904182
0.6419859538
0.5328291154
0.6700298788
0.4878195983
0.4393943465
0.4072769894
0.4393592063
0.4603596967
0.4374056479
0.4384530609
0.439231367
0.3696931595
0.4943722179
0.3942979594
0.4968653298
0.4260004749
0.5239807712
0.5689558163
0.6779863185
2.460122843
3.803653931
1.3746744
1.441863221
2.892129309
2.325728757
1.239016003
1.235000636
0.9893004419
1.00787157
0.8830931949
0.7216977137
0.7444959204
0.6705992197
0.5984097205
0.8221585028
0.6134240853
0.4330349286
0.6294003954
0.4861893623
0.4988659097
0.6155781537
0.5680583167
0.4889291924
0.4467589626
0.5122363874
0.4410685724
0.560517472
0.4094063951
0.3963467079
0.5038445696
0.5560085185
0.4425798499
0.6004090706
0.557259711
0.4119765013
0.4911278674
0.4887875653
0.4812363548
0.5550255522
0.5130721583
0.495883327
3.695824451
5.381932071
2.849404115
1.784699722
2.791723991
1.821984803
2.310287671
1.087892477
0.9288663029
1.785702688
0.8674564832
0.814897391
0.6599699418
0.6793015719
0.5680368797
0.7761120938
0.6297115124
0.5806607301
0.4269703843
0.575828172
0.4684315912
0.5130513202
0.5088201994
0.3303486696
0.4595308414
0.5104135303
0.4910356511
0.5028589408
0.6215285329
0.6537877743
0.5717684307
0.6205552331
0.7730364025
0.5623147848
0.6073313861
0.4978423707
0.4665392515
0.4272870368
0.45693854
0.5032623752
0.5975375081
0.63761478
4.402984058
5.206883638
3.399791405
7.420160566
5.330789716
1.833267955
1.068823572
2.273064032
0.9472152791
0.8893252973
1.270810485
1.063416193
1.065993213
0.6127422425
0.7065801453
0.7296191601
0.5817459114
0.8384630038
0.5342782363
0.6019188428
0.4266063683
0.5743071755
0.5020242614
0.6382158455
0.5293278097
0.7218170729
0.569309093
0.5858412834
0.4945484604
0.5954413245
0.5321892142
0.4829962294
0.5137258889
0.5802782042
0.588021097
0.4663585874
0.5503865589
0.5209394672
0.440112944
0.5458022837
0.4564668958
0.657072945
3.281672129
3.559647919
9.570288328
7.027146562
5.198872181
1.588662634
1.250701785
1.060629859
1.151444066
1.542835214
1.015664772
1.292932002
0.9955941945
1.246108424
0.7614481157
0.6739950652
0.6030144403
0.6013999459
0.6144325307
0.4672500123
0.3725551001
0.4291147396
0.4676309775
0.4580497701
0.4088595285
0.4927977154
0.5949981614
0.6155382099
0.4217735928
0.5258427704
0.4496986418
0.3981801826
0.4920702598
0.4861946888
0.5586051667
0.4726574112
0.4639194537
0.4849792026
0.5967698734
0.488517818
0.5937116365
0.6927323375
3.141833202
2.988746507
8.573425919
4.168152181
1.727292297
4.606576138
3.993940376
1.890504707
0.736484302
0.7566041281
0.9681510429
0.7857555679
0.7490674882
0.775465703
0.4717983344
0.6365285559
0.5070493431
0.4567870303
0.6121451198
0.4701332912
0.416362789
0.4009049498
0.4090727769
0.3595501428
0.4404923417
0.4042362683
0.5389998848
0.606716387
0.5908360783
0.5190682669
0.4458124175
0.4548125948
0.5025499996
0.4119398686
0.5857947198
0.5694872203
0.6999220859
0.5256228232
0.4988596436
0.4445956979
0.5407143898
0.7244941935
7.68594888
7.729632972
9.899628531
2.374502757
2.554047134
1.877070395
0.9947071976
1.068997583
0.818137888
1.193103763
0.7523584459
0.9053600054
1.029645815
0.7074656046
0.5412964054
0.6049009431
0.540399478
0.543220958
0.774919196
0.5459989628
0.4837140742
0.5079195125
0.4601483496
0.4964554144
0.5486327867
0.4736945816
0.4280182009
0.4981071546
0.4690386606
0.5714417451
0.5830198116
0.5402258931
0.4950458616
0.5485183531
0.4453753292
0.533509428
0.6147604771
0.5392002178
0.5683482057
0.5107685798
0.5605300382
0.6813034118
4.301948159
19.40995021
9.474262083
1.83863717
1.053497117
1.29851823
1.159500033
0.9090160542
1.176658742
0.7998029533
0.728293655
1.160274645
0.9230653571
0.8513573442
0.7389719907
0.7999884577
0.7736881154
0.5645219411
0.7093701246
0.7132744581
0.7110476266
0.4896693789
0.6675614315
0.4227807595
0.4759826409
0.5449158935
0.487472215
0.4879011735
0.5621463478
0.5265585206
0.6557700866
0.5629653781
0.5027385645
0.4566885058
0.5034685901
0.4743031784
0.5112672428
0.5039656908
0.4109358492
0.591292608
0.8181223765
0.5429242819
2.356167147
16.22622064
8.889118926
4.01109659
2.677035059
3.045805054
1.178043825
0.9163571115
0.8788937232
0.7803538535
0.6602766623
0.7122170606
0.6903416916
0.5654742525
0.7274645873
0.6925957388
0.8920560503
0.5487690993
0.494056841
0.4924058241
0.5967836403
0.474708433
0.491486455
0.4796638107
0.50543761
0.5062785079
0.4759771601
0.5728106313
0.412392488
0.603280717
0.5391009524
0.5841267029
0.765537983
0.6350401565
0.4952560908
0.4740510334
0.4396671216
0.4472395156
0.4589982615
0.4223480844
0.483448162
0.5956100387
2.295931232
14.9251288
9.943497756
7.65769567
3.17249822
1.842079503
1.148845674
1.043231769
1.27292317
0.6811805771
0.7049380452
0.6673568238
0.5532577176
0.6721158225
0.6912619137
0.6261024521
0.6997841605
0.5582961804
0.5552353129
0.5986275075
0.6974002784
0.5707760339
0.5194927989
0.5162294219
0.5342383149
0.4950001176
0.4799209238
0.5440178332
0.5351086883
0.4152489585
0.5412569163
0.5199898447
0.5368378404
0.5326747747
0.4201316109
0.4127792318
0.5636362041
0.4931316344
0.5425421084
0.4236609104
0.4861116724
0.6493845744
2.590152232
14.93056464
9.148889107
1.786932854
1.677943595
1.887822893
1.508054603
1.03413145
0.9701922963
1.04846552
0.8676081534
1.15998331
1.002535466
0.6772224097
0.8301632729
0.518095043
0.6501828043
0.7274031023
0.7130691863
0.6092408382
0.7815122938
0.7197075677
0.5260726501
0.4950370882
0.5808308119
0.5714703089
0.582054003
0.5297066291
0.556052617
0.4308311949
0.5650400813
0.4552715058
0.4569135813
0.5260739683
0.6295929159
0.3954641974
0.4827392837
0.5000006688
0.5718233051
0.4339846776
0.5147776717
0.5382724549
2.560115215
4.146175162
2.776760331
1.550807363
1.182624721
1.158255593
1.197654573
1.013802307
0.9885530007
0.930906821
0.8615212162
0.6619880778
0.9709824586
0.8307907076
0.8644112632
0.5816852433
0.7641103706
0.6579553401
0.5262885602
0.6025940009
0.4107329781
0.4716746349
0.6077299347
0.6261742123
0.4993831855
0.5811292155
0.6197734055
0.5826741455
0.8304501872
0.5862253854
0.4498803919
0.502915755
0.5103725312
0.4511199811
0.5205444731
0.5788543668
0.690331095
0.6991837165
0.5745253429
0.5652960627
0.5939997201
0.5639660522
1.727505316
2.264242946
1.841232943
1.258015957
1.331810241
1.33949875
0.8924764135
1.347592223
1.38224997
1.194692143
0.8609523065
0.5692009113
0.6859805248
0.8385291887
0.7198035829
0.5285514299
0.7005208582
0.6003135117
0.4913174358
0.456203786
0.5732556813
0.7945268709
0.773570843
0.567805859
0.5832739518
0.5019946105
0.5139793193
0.6287262877
0.7181206087
0.6508508233
0.5377371814
0.4998533024
0.4055313052
0.5186963609
0.5718365384
0.5950642322
0.6629719347
0.7751590973
0.7358599824
0.6479945526
0.8161085034
0.6402828697
2.264558006
6.948041474
2.768870548
2.409157667
1.857222914
1.13113002
1.29228282
1.629898974
1.593299957
1.25261974
0.917522186
0.9116066248
0.7439760736
1.136470021
0.7485275069
0.5827067502
1.039593742
0.5089595647
0.5323287892
0.3967682272
0.6344184026
0.7227087669
0.639418701
0.5672108109
0.5239354402
0.576105087
0.3861608518
0.4378821603
0.6143923542
0.5702235743
0.5304458231
0.4614788042
0.5186031902
0.5095538029
0.5975331255
0.4486902742
0.562385722
0.6752117982
0.9445622243
0.5881674103
0.9068843631
0.7777358516
3.863697304
3.453415514
1.574417286
1.148296571
1.060196434
0.895027091
1.142257358
0.8655107904
1.17222022
0.7026133693
0.8467538735
0.6660267094
0.7130739016
0.6124600508
0.6319201194
0.6762830484
0.7891865212
0.5932323964
0.7313689655
0.5452016174
0.535383815
0.8668446431
0.6940693067
0.5286248162
0.7109362126
0.5599937036
0.4825483463
0.5103461081
0.570525544
0.5441281764
0.5541058379
0.4954933816
0.5038611287
0.4744488427
0.5296944778
0.4463858167
0.497463135
0.6339886963
0.5019499606
0.5648729304
0.5676491421
0.5074982644
1.09360792
1.024452851
0.8871608175
0.657187089
0.5902040539
0.5660621876
0.4787425528
0.5123083666
0.4261665289
0.5193607116
0.4402270008
0.3290278371
0.4100876439
0.3365592524
0.3753455178
0.3834870285
0.401124088
0.3548692272
0.4062199872
0.4690975096
0.2874269274
0.2984933427
0.3621117062
0.3925719585
0.4105733672
0.411215911
0.3436637266
0.2568695782
0.3106007988
0.4846747823
0.3901164494
0.3725034877
0.3847665419
0.399882036
0.4299278037
0.3436870583
0.3858490014
0.2870747602
0.2760092009
0.2850719742
0.2321632249
0.4561161574
0.8578539476
0.6555213106
0.7359489187
0.5911865649
0.6581701439
0.4264282057
0.440806979
0.2890659619
0.3715039216
0.3818090381
0.3380300077
0.2661181277
0.2452738562
0.3051027393
0.3094550048
0.2963019677
0.2893158599
0.249560203
0.3289333687
0.2578468481
0.244728648
0.2586832551
0.2426022029
0.3023384765
0.2980675662
0.2612459996
0.2347468555
0.2576446018
0.2294848489
0.2889429131
0.3752312934
0.3463623933
0.3527961661
0.2578364114
0.264581617
0.2124629279
0.2580676245
0.2530188248
0.2340565101
0.3100124865
0.2753844645
0.491088119
1.219201195
0.5171884204
0.5181292281
0.5840861714
0.4985029213
0.2983554491
0.2844090743
0.2850499297
0.2645483491
0.2873862009
0.3286444395
0.2385062764
0.1789445756
0.2149589208
0.279158117
0.2614547054
0.1830111701
0.2173170393
0.2065521119
0.1965058709
0.1974535605
0.2072364374
0.2125479137
0.2161834906
0.2493384014
0.217994954
0.2441200591
0.2132249505
0.2691806567
0.2796713515
0.2696756019
0.2564399898
0.2246620921
0.2250440968
0.2339254883
0.2675702906
0.2321447537
0.2777706126
0.2285067
0.2128796217
0.282820044
0.3546074709
1.347863775
0.6022811596
0.5503941378
0.346684758
0.4152017493
0.3218772917
0.2663712053
0.3206534552
0.2703526717
0.2997699798
0.2200079741
0.2196645095
0.1791487201
0.16637547
0.2136790209
0.1816679192
0.1577941077
0.1621493217
0.1923834289
0.1882665473
0.1839259473
0.1991979227
0.2174446272
0.2106963465
0.2131677223
0.2385307985
0.2569027928
0.2480381825
0.2118077805
0.2338927073
0.3079209725
0.2824293388
0.2766911003
0.304784533
0.2937650661
0.285280084
0.3346675554
0.2782841005
0.2552021468
0.2534125758
0.3361793525
0.4600578647
1.135837939
0.5831560423
0.6030846904
0.4791504431
0.3687078411
0.3206222723
0.283675053
0.2347690394
0.2991102692
0.2914593326
0.2677348225
0.2031853573
0.1551636648
0.1425646669
0.1496338069
0.1339232739
0.1422061357
0.1444494555
0.1542055451
0.1513434305
0.1988407191
0.1838311096
0.186019004
0.16523729
0.2349891176
0.3187880332
0.3085037156
0.2586285396
0.2548359213
0.2408265325
0.3236527069
0.3063785525
0.2910265089
0.3440345395
0.3118420722
0.2471598223
0.2715238411
0.2802648747
0.3258011509
0.2674496428
0.3011155217
0.3633097116
1.120017818
0.6631727418
0.5259654421
0.3968805672
0.3185239378
0.3662102762
0.2879533523
0.2364166653
0.2612728466
0.2094076796
0.200624323
0.1839539751
0.1835874243
0.1302504765
0.1222789998
0.1247823181
0.1052157483
0.1244366204
0.1688020996
0.1709376438
0.1850304921
0.2106363256
0.2072073926
0.1744578718
0.2233019125
0.2876110979
0.3801645576
0.3447315784
0.2847347992
0.3741367414
0.4835299362
0.3242971123
0.3101930244
0.3162678278
0.3705240304
0.365509123
0.270085396
0.2364368322
0.270543032
0.3296718649
0.356229949
0.4740650358
1.217985716
0.4763486977
0.3680989498
0.3202638927
0.2909568296
0.2672516727
0.258106199
0.2271356196
0.2168674423
0.2116251764
0.1772349128
0.1288096131
0.1173802775
0.1056643019
0.08684498611
0.09050216557
0.05233673645
2.475347159
0.5982453074
0.6743754041
0.588125384
0.5943350016
0.3939237145
0.6252691671
0.4532682407
0.4323158474
0.4166787408
0.4003851434
0.4438305584
0.508363921
0.407416218
0.365728313
0.3583816831
0.6017547729
0.8783935126
0.5006507036
0.3471936205
0.2674706336
0.2677139705
0.2486028297
0.2405537224
0.1908345773
0.1924259196
0.1601948553
0.1445531106
0.114194172
0.09219931651
0.08133084979
0.04820383734
1.072657013
0.9547127383
0.7001868542
0.7195888646
0.8001026353
0.7605349235
0.5666935046
0.4589896557
0.4342282222
0.5391121991
0.4423771702
0.3921263996
0.4158140475
0.4187324389
0.5096948357
0.9560053621
0.4696875338
0.3929627967
0.32165205
0.2536028736
0.2572922942
0.1866043763
0.1404755981
0.1732118204
0.1205680672
0.08427201751
0.1023400481
0.05442545286
0.0006250713233
0.0006401471792
0.0006524109683
0.0006502139033
0.0006548419254
0.0006576110534
0.0006500621159
0.0006325237115
1.34455694
0.7093086038
0.9951088743
0.8268274315
0.9792898262
0.9064411806
0.8204723946
0.4930842037
0.6932262308
0.5797816987
0.5818910837
0.6101153753
0.5829085649
0.878764357
0.5428710631
0.3827613512
0.3071080322
0.2467992779
0.1994181323
0.1796455611
0.1462127385
0.1357340995
0.09713730361
0.06458364729
0.000636377314
0.000669411491
0.0007103807876
0.000718531571
0.0007343747125
0.0007338859055
0.0007398940218
0.0007331538357
0.0007191532289
0.0007002696211
0.0006649103713
0.0006346741044
2.057971809
1.388459532
1.437528059
1.834948033
1.059871289
1.186493101
0.8639484261
0.5737830028
0.676856491
0.6546993246
0.6763826596
0.5841464629
0.3626118635
0.27464635
0.2775732166
0.2543739101
0.1867237162
0.1934425591
0.154714373
0.1019112714
0.06396229707
0.0006321624354
0.0006697118357
0.0007068945285
0.0007351609993
0.0007767324722
0.0007946162427
0.0008137610339
0.0008145055985
0.0008145957885
0.00079622066
0.00078941482
0.0007734599238
0.0007410839231
0.0007074309963
0.0006616639534
0.0006281491775
5.272046543
1.632334085
1.593211157
1.725825091
0.9169715594
0.9779228276
1.076432762
0.4754569859
0.6280282312
0.5591883607
0.8485586457
0.4310179015
0.3212489812
0.2417885579
0.2348791426
0.2260241072
0.1616807164
0.1117678559
0.06064836409
0.0006386023507
0.0006904344048
0.0007407469293
0.0007766660118
0.0008046809263
0.0008469290109
0.0008583149276
0.0008706484771
0.0008587937616
0.0008578435732
0.0008598018798
0.0008514125806
0.0008266298698
0.0008032027853
0.0007619257693
0.0007292561663
0.0006844840843
0.0006334707085
5.267054555
1.475881201
1.389515605
2.984827918
1.536138033
1.179777152
0.7932627336
0.5957494126
0.6740610267
0.7396188613
0.407115237
0.2943117167
0.212530359
0.1996493367
0.148351144
0.120579585
0.09853480962
0.05689788195
0.0006342199745
0.0006937492867
0.0007421098921
0.0008019414959
0.0008377339255
0.0008719005098
0.0008690682739
0.0008745391358
0.0008711791618
0.0008676328355
0.0008604661884
0.0008646090117
0.0008717369224
0.0008723291151
0.0008671384075
0.0008369869838
0.0007906390695
0.0007365579281
0.0006786215441
0.0006147729259
7.91091792
2.746526726
3.115492835
1.556101251
1.092082243
0.9477280907
0.8748466362
0.8348334643
0.9948649071
0.6623239409
0.4149228513
0.2413980725
0.242247541
0.1786959065
0.1354410251
0.107611686
0.07326177123
0.0006305994161
0.000686814385
0.0007550726569
0.0008000959788
0.0008463707007
0.0008765493709
0.0008720769628
0.0008494520414