/*--------------------------------*- C++ -*----------------------------------*\
| =========                 |                                                 |
| \\      /  F ield         | OpenFOAM: The Open Source CFD Toolbox           |
|  \\    /   O peration     | Version:  v1706                                 |
|   \\  /    A nd           | Web:      www.OpenFOAM.com                      |
|    \\/     M anipulation  |                                                 |
\*---------------------------------------------------------------------------*/
FoamFile
{
    version     2.0;
    format      ascii;
    class       volScalarField;
    location    "3.989";
    object      mctToDt_O2;
}
// * * * * * * * * * * * * * * * * * * * * * * * * * * * * * * * * * * * * * //

dimensions      [0 0 0 0 0 0 0];


internalField   nonuniform List<scalar> 
50792
(
4536028.573
726156.407
372539.2611
1417362.927
1172325.44
856372.0274
2792492.644
588867.201
551839.7196
923241.4416
388012.5544
495041.3223
330018.8998
390906.838
802700.1098
274697.0757
443724.7691
404096.2403
676015.6183
649237.2754
690824.3796
501250.7031
397867.507
408450.2596
455858.6185
553664.7026
165623.2444
252599.8468
319950.311
278505.8017
245749.4129
376775.7851
528242.3118
548539.8966
226489.8761
475190.8219
488000.0206
364201.1046
468655.8807
476659.6342
402298.2858
417028.241
958818.2041
8448573.987
7301961.691
5329346.249
4158199.827
3116368.787
685247.2532
408298.2697
1290957.58
413818.0936
675519.1953
396012.9339
443499.998
589770.1422
589927.494
386444.2491
862452.347
403162.7938
534399.8132
326247.9289
301317.764
249711.4223
254406.7918
372238.4393
415716.6924
879101.5028
419039.4927
536547.1286
498268.7708
285640.6929
363315.8548
225561.1767
328482.5682
471278.6736
329319.1479
323135.0969
354536.3319
218163.3256
247760.6966
349194.8404
418766.39
616773.3334
120357680.3
22371073.82
8336803.707
7726671.492
5187561.844
4229810.24
406645.494
1082756.954
2478307.694
493562.8218
1135667.653
913710.437
628362.6692
692422.3914
533694.8192
838644.6744
646791.78
314500.2906
408429.87
490274.4139
376904.1105
324492.1586
406508.1706
315034.3283
493920.5471
634766.2788
379330.8428
316839.5275
348626.2152
525629.8194
393539.242
182067.3662
325596.4499
408682.3278
259528.8053
357828.5411
459000.9476
471961.5592
333247.5981
485231.0426
244993.3675
298864.7352
5165682.373
19421188.99
8674721.205
6272001.005
5061683.331
3480622.083
2804405.422
2720952.52
624039.4673
999966.9727
487512.692
375796.0165
713749.5954
726634.9326
597261.5648
1102629.998
262599.6506
536910.0639
351464.3425
226137.4145
257249.8888
258240.5268
622896.9703
411124.0052
598489.3899
701958.3271
367958.458
295862.9861
371308.0959
435615.8111
261993.6384
258039.3984
241445.2549
400256.1596
373776.9107
526867.7673
473277.1802
562015.8897
265234.1645
287423.3683
402847.3637
654419.0714
2305159.668
11475380.73
1151037.562
931643.6801
2129088.363
2450170.041
488736.1434
858697.1027
420522.0434
952874.5992
439547.9025
748030.9196
513365.894
515450.9385
762757.084
536436.2602
356318.0637
606462.8621
491694.1072
394118.8284
675781.1933
280501.0607
264072.966
304339.7981
443430.4627
230613.7319
290185.079
543801.4965
317648.9424
228284.1926
261908.13
254329.0078
250711.8846
404438.7862
303589.173
658620.3199
416176.0728
405644.7792
306279.7204
370709.9004
327960.1429
452012.4082
28808662.65
12261481.49
7382131.646
5872749.098
832765.863
3626229.795
1496081.767
483899.3713
507522.9918
992647.4482
764221.9051
509770.6283
1137843.677
581479.3371
615064.8965
486837.1665
745298.9119
942886.1162
548441.6293
398746.9879
564164.6778
238294.1007
377742.3069
282652.8164
539747.3372
443547.1896
391736.1259
269910.6953
249360.9671
386148.7608
368910.4696
311629.0489
238966.993
295245.864
315484.9885
427116.5653
628154.0092
403670.4258
391539.8767
289611.7455
248007.405
531512.6481
3148215.126
102992213.4
62229052.53
11037914.21
6909023.794
1898141.51
857969.1563
2282642.74
894607.9794
819617.966
872323.9542
891068.9809
501085.1582
990453.8483
815627.997
1016153.377
506548.3755
502067.2812
360894.6169
287517.6205
259831.8041
452813.8808
423273.7924
463728.7187
361172.5515
337450.4439
234683.6572
261814.4365
315556.6894
374023.9568
355954.3635
500134.8175
335887.6519
707995.4734
584608.5535
769323.6354
347101.6807
368030.5642
380979.291
298063.2266
247004.7771
384439.6866
63638337.22
13221339.32
4954162.12
3087117.807
2610662.882
788432.1258
926478.2506
685210.5229
1320908.051
494795.1103
552176.2131
1252295.142
825187.9567
895289.3494
493516.1853
403706.246
561881.4052
516379.7139
318879.2051
336974.931
289521.316
268215.3814
322987.4097
349797.7032
361157.6127
195000.5227
253104.1219
309998.8714
416443.5791
322628.1701
298718.4576
328825.1646
427829.0233
273748.9475
375101.4816
465927.7121
357238.8066
397210.5797
290684.3936
464603.6865
317039.6775
303509.3892
27240071.8
7414515.486
1334116.35
5273951.048
4198393.718
4022998.875
2752293.279
537217.558
1374934.324
501624.0477
969491.0501
613967.3361
1306244.805
697719.9974
392125.082
696984.2034
848274.0817
923653.3143
414448.2881
337411.0632
593735.7285
221141.5766
367063.4456
261665.9648
397147.8378
615071.9024
413642.0939
344539.2617
298511.8054
211321.5769
125760.6396
198584.8141
237872.8887
310818.7968
320712.1822
223026.6466
260913.5357
201012.4613
268564.5231
407291.2674
225232.7988
483410.0615
4081002.564
14877953.13
1262549.83
6446197.535
3545945.819
2201755.423
671971.3843
1296359.548
2132330.754
601977.0218
637459.819
479945.0382
593154.9612
597853.4354
404926.8237
1230226.558
607678.9173
1423818.936
523040.444
449267.6869
348527.2071
334296.7393
496510.4653
322756.5124
696003.2242
652423.0278
403887.0398
401817.754
288804.8174
178662.6187
582574.1843
385428.2386
764205.1992
233198.5518
476509.3353
489225.653
507217.1779
338348.0836
295873.028
379975.8586
283907.3199
492096.5891
3471269.031
0
2271664.739
18024921.99
7316348.033
4363106.778
1889331.225
913370.349
392399.0225
1272547.529
535044.3048
1654127.222
390452.8406
505859.9207
284281.8002
509566.3464
355918.2861
556655.0357
582284.5129
523137.2963
734896.3724
318525.2735
315775.0227
365593.1294
751102.1382
575539.2568
494759.9074
363762.6179
293458.1017
284272.9903
385108.4251
423864.0381
387728.8827
382573.9023
275982.6756
402463.3063
571153.4541
336514.5945
273162.7277
445293.0081
393154.0391
680434.4074
5459238.162
1219336.785
2132175.716
4721494.847
3131047.73
2716952.039
857012.2766
1002196.824
1455964.849
1424264.987
982692.9331
356685.0913
444841.4956
251743.4911
398957.0134
1116986.508
677548.3422
347741.8086
311666.9848
338108.9483
305282.6425
419507.6312
386153.0159
314947.9955
425177.5599
258848.6021
307019.0068
223792.8007
318977.331
238455.9508
250894.6577
262517.7138
242884.7062
306622.4977
340360.1822
300093.0589
276392.8342
277503.5466
323353.5859
267307.0729
384337.7334
405966.682
965947.1052
1446396.659
4719187.828
3460478.472
2897322.405
931616.8886
358632.8504
1381972.579
815463.8431
515953.4597
812107.5443
1055619.508
668695.6431
763309.6265
414642.1952
843461.4681
597821.5693
417104.5848
247097.7357
217415.494
266761.7619
262601.1939
214781.5549
334693.4063
329772.3896
454396.7748
256848.9519
276926.8451
300386.9714
260288.7269
244813.938
231704.4789
182487.6909
202240.5533
212194.1213
213354.0614
212152.0297
245622.286
331218.1174
249510.9526
381827.1393
378295.3433
586016.1653
559213.0594
3305832.441
2457297.237
2137094.34
2013003.559
480320.7484
374302.579
324725.2055
1824232.744
575360.0124
424670.19
1659613.205
509201.9152
724993.6663
345023.0536
702072.2604
440312.0293
259169.0959
366954.2654
608052.6821
347800.0103
201932.2246
301182.5754
583783.8313
257099.0331
268103.8402
291150.1224
207632.5134
259178.0422
249675.7508
201845.8372
185460.4343
385779.0154
234556.3896
186142.4214
179588.1999
179200.9736
184550.8181
236438.9105
297182.1744
495823.1627
394140.2213
5210582.527
3275985.091
2967089.163
2517688.97
1501392.413
604575.1552
344326.4311
1950551.957
777988.1722
641304.0685
727207.774
1267425.23
454160.1152
707590.9124
510941.7622
752163.9276
483821.0021
360457.4199
455400.0466
800421.6936
352697.5627
268931.7251
219988.7046
271129.2753
220509.9138
321140.1881
308465.8789
276561.9703
314992.9267
391520.9991
305527.9646
173857.4028
204494.9225
176392.5933
288920.1532
260092.9166
255181.988
253605.8523
245498.0627
339315.0601
535181.9955
2242939.648
10284639.24
6551242.715
6056378.175
1859228.383
1171581.697
1153025.13
1010580.288
890552.9129
606259.0928
624674.2856
641198.321
1074810.804
397331.9831
433539.7497
308417.8962
617533.5562
326228.1378
396640.8767
228593.2904
402124.0219
256626.1287
302561.3553
219316.8575
344294.0941
367343.8045
303388.3028
307808.3528
327474.0199
294661.9023
483799.0577
446882.5084
352999.8843
264431.4266
528275.1362
367309.3746
291868.6652
525839.3217
270187.7457
305583.4099
318300.7212
399656.3934
3054921.122
18877762.3
10098070.97
5341315.322
3496560.329
2510632.495
733631.8583
1085496.977
564818.6168
332727.6931
819117.9644
787107.7038
667191.2957
394736.7425
246155.2902
338448.0843
303552.0282
338500.1502
246147.1014
312353.3496
557010.0387
334436.2749
355316.2289
246572.0071
246933.9379
370514.4499
243518.2849
258680.9436
224287.4405
310907.5542
342379.5481
296253.4096
253666.1875
261242.3431
451173.7546
264018.3471
345135.6173
318174.2185
249650.2797
204953.9842
249377.2506
461308.8565
1178390.766
12353985.39
4697340.508
3275148.634
2961560.409
810198.7332
2512173.247
1092647.209
510751.1612
1108167.861
649779.3904
586009.8293
459707.2533
569984.7977
1068712.747
310940.0185
408330.4682
286911.602
314059.3486
465059.4169
577256.9233
368941.749
370786.388
315540.7498
245776.8413
351842.3266
239532.4959
423258.6627
260737.5788
386805.2042
312582.8792
319594.9144
635962.4562
714860.9814
424008.7659
271432.1287
233798.9332
646295.9711
567811.6194
201245.2766
321777.1056
794748.7654
1710906.224
8107059.711
6729357.385
1545310.555
4160504.165
936448.6312
467700.9877
1060182.347
1434840.151
713472.2419
478679.8439
484386.327
265665.1578
287349.8187
481809.2931
483846.6448
275045.553
224141.1607
266797.4162
336029.2612
323965.7584
355037.3683
241217.3954
194895.137
251317.1731
598404.3268
312416.0128
314880.957
294298.3097
257938.3367
234299.4226
224823.143
325863.6403
387295.7617
367439.1484
367445.2994
332275.7947
395147.8494
522145.1762
313358.473
375375.9209
685878.9765
17013735.01
10269587.33
4911484.062
849632.1282
976394.4863
563342.0387
532341.5731
1509799.927
1109387.332
345271.6519
470900.9924
611632.3782
479844.5922
419947.9345
438782.6275
379950.7623
442092.9038
320840.0125
357665.1983
238963.8651
344493.4528
412412.1109
263457.0111
236954.0503
437021.5468
636940.3649
519009.6265
274153.6717
360061.2905
349417.74
286253.3829
392743.6221
309955.7267
365029.5254
409534.0337
486955.203
355911.7014
303119.4856
357203.7483
453900.2589
382467.9453
470627.4792
1031178.326
6540183.525
1137850.904
3496613.407
482499.7849
752685.9765
1085907.168
687921.9769
603210.4899
1405724.288
1260688.498
489940.4408
553856.5409
641024.2449
593110.4015
273268.9413
474729.6018
309251.5743
267873.9277
232277.9976
310010.0049
281419.1884
250120.0477
482475.3293
238693.4673
315604.0559
301271.9798
364985.8468
250958.2911
276876.0777
244017.058
335036.0628
365359.424
406174.3193
410593.318
320096.1786
561019.3123
367854.9386
622879.9083
522757.2921
279978.7567
379543.5439
2864458.085
12753988.27
631845.1704
2426279.071
975345.8556
535008.5483
601821.8982
1334884.897
737909.8468
567386.2607
580125.2469
1573538.349
1024979.283
1145108.106
504420.5007
575103.1151
418166.7443
296320.559
451335.4006
311536.2489
615511.8186
584437.3024
387043.9574
195195.9638
562421.8724
348357.136
374686.0815
272978.5581
274997.625
399181.5899
283082.9651
242188.5418
196753.5644
181798.5938
272824.8052
240198.1487
341775.8475
429365.876
403422.7141
446927.7721
419173.4312
712689.9445
0
95336318.75
10638078.75
6547530.873
756294.5138
1011503.94
1008207.014
489186.4278
689752.4615
715999.4977
340140.8551
767570.9378
486588.8815
489093.4782
380916.6789
654328.2656
818051.0766
363745.9294
371480.0473
829989.2113
614416.5556
297007.2461
252440.1398
237034.3563
298623.3983
343399.4715
383147.8059
311420.6763
519223.287
515888.1032
254730.4591
193990.161
185297.866
213477.7976
181239.5836
376850.2686
247668.3628
317836.7708
248188.9387
597953.4141
373645.8106
456301.3678
800349.6465
5454317.262
1207065.398
669699.5819
1790851.769
3044031.2
2427695.59
1085005.17
443733.6046
682357.3285
736830.3037
420475.6185
591728.9681
431823.182
327922.0411
1174217.587
923660.3141
253066.8088
576488.7914
444955.0331
564405.4668
499499.3494
433746.9887
726305.5009
348720.3716
236457.1428
252490.9346
422205.1379
516449.7705
389260.3773
481839.2759
234861.3542
225557.3276
205936.7202
394688.5292
568451.6524
330491.107
275033.9774
286836.1872
351242.4975
321966.1777
645226.2252
1361328.935
1891642.227
1338510.402
4787788.711
3092067.42
2879596.708
2436615.576
642772.8974
524089.8261
779123.1301
581744.048
823492.5408
453208.8898
348784.7291
425562.8125
705839.7264
309643.238
382494.9743
440800.4035
471021.49
499366.989
308148.2132
346630.1391
543277.28
340024.3592
288166.1042
263297.5875
317729.0951
256766.7941
516429.7942
237609.3355
303859.297
565159.1511
251712.9763
304327.0171
320930.2074
465511.4201
414866.7093
385996.6318
335482.0549
376591.5421
505635.9695
694644.8908
1817948.464
7011442.502
6424576.454
5559732.158
4627682.032
512036.7268
2315778.341
584652.8008
1221542.934
1956490.961
552966.3409
401986.8669
300944.0925
320023.9351
388353.3373
214071.5306
485254.2386
535102.9197
607545.0931
344991.4159
545230.414
293500.5643
448102.1325
508944.5082
304114.6114
258143.6838
233759.8469
385668.4261
354376.7645
261167.5766
471011.9857
411898.0064
405165.8226
235423.9582
248274.5143
521136.9308
398854.8221
403339.5808
314135.5637
348259.562
514443.2259
1211416.014
10710200.45
7791650.611
3713336.763
2646770.978
1291376.179
1419192.253
2290077.147
1715041.952
909080.6618
384556.9852
539215.3091
386102.846
346270.4412
373562.552
511597.4382
408446.51
404259.1677
509219.723
413913.0357
368982.0449
601080.754
648375.2413
828239.095
754480.826
392690.0678
346933.6002
464207.0892
447372.0321
232665.7069
241957.4426
262002.4115
224929.9326
249181.3232
268690.8524
242991.8959
365357.0227
229222.7515
751241.8779
478487.985
504647.751
525916.847
1694251.52
30338762.94
7621515.249
3324403.284
2454390.038
1481120.209
1666342.845
1666449.901
1347821.957
1204097.843
690915.9925
499174.7347
350987.4407
319534.2004
480646.4004
501515.6827
546107.3598
485009.591
425188.8782
409010.4665
304157.5469
310710.5454
253390.1799
517492.5497
310740.4034
267701.8418
178223.9758
208552.7262
207789.1632
208496.8258
305292.3686
294416.2923
469736.4709
194721.4469
357883.2767
218005.0687
300717.0279
422568.8503
311586.3403
305364.1742
493207.0257
535501.1771
619833.8698
1890824.404
4086069.605
2736199.214
2264959.65
2513392.482
1607638.156
761783.831
563991.0994
654755.0891
1039236.995
745850.0999
297340.5681
508995.9354
609225.8256
317285.8194
422667.9901
595124.7826
322272.6338
309223.7288
385945.7635
462181.5839
481841.1317
266854.0055
294293.1767
274262.7654
246382.2119
239068.6932
274842.8615
354473.6857
380976.0772
229719.1269
407944.1008
396759.3646
572526.098
321007.4379
319910.7732
339370.6885
272353.5693
180363.2415
261024.5171
436286.9566
855683.1666
774698.6499
600053.9627
901098.7424
2197990.016
843688.3691
436391.2846
484863.34
559329.465
763661.6599
1715366.859
648300.6507
398644.7448
508178.909
441120.4962
542094.669
292847.743
418799.7629
305683.8357
399885.743
687691.7933
397013.147
428592.509
279486.9234
253270.812
199425.0417
388268.86
490088.0815
469439.2849
512137.8413
418757.6116
438932.3314
297495.1476
286646.9992
334778.5294
701247.2507
464925.0447
420236.5641
391846.7008
251588.4826
827844.2605
655866.0229
969761.3031
1255359.615
7065936.693
5552389.584
4479176.544
1273795.303
565072.2566
481836.7913
379244.6867
732303.3625
639408.7128
503079.0985
578847.9577
482713.2608
421208.2917
410157.9068
373652.4126
710779.6156
767596.7051
639404.2844
534813.0571
329623.2345
380702.2943
350730.8748
200022.3641
225954.6937
217732.2606
353390.0497
335068.2772
355986.6429
197966.9855
504699.1151
617076.0378
261386.4362
229193.4823
518774.4888
345843.2324
311006.3077
179745.1527
251711.4097
326139.8847
496240.7482
504411.0241
758276.8704
2461552.593
4676866.97
4114011.808
1098219.616
1394478.845
976566.9798
1348630.255
696208.395
535299.3339
502735.5654
1980633.435
1394301.141
378880.338
303871.1912
1212040.913
857061.0087
589619.6875
596870.8109
366763.1819
445314.8113
273797.6144
240128.5203
349981.172
299216.0378
341955.4046
232780.0126
508848.2993
352194.5148
343064.1505
355937.5297
347855.9348
268946.0599
594090.0996
407119.4505
342549.1652
275181.0589
323711.6418
280801.4609
434816.4676
352460.9555
1536534.916
8362549.686
844540.6211
3809412.468
4031204.921
903952.3054
3218315.277
2688372.855
1130736.558
361570.6871
409917.4943
495233.4774
568438.7794
524053.0521
431165.1192
679396.7924
940507.5374
425931.0482
431497.4393
351797.6539
309319.4426
305651.0009
204500.3608
264407.1105
308041.3279
783099.1856
818236.0079
363653.3244
268330.6947
340363.7812
393108.3667
250228.035
232597.4939
319051.8665
281832.2626
241458.1382
183148.4972
205341.6423
246557.1095
328340.585
251578.9508
335068.5814
1370874.114
22520660.61
1343161.577
9854695.435
1640802.56
4223185.177
3794871.134
717702.9778
470742.9203
471376.0906
581148.004
501842.1365
464759.7794
430287.6342
476642.9427
532384.8033
672182.4122
226274.3801
346427.7933
338535.9954
482305.3576
519594.3921
305466.1832
365596.3486
456631.5122
286666.9311
361922.926
350422.108
235456.4207
390572.3235
366282.1219
379372.6111
239248.7719
322217.6971
301086.6179
297888.3234
292198.1446
164798.5197
253040.1587
266229.9819
324846.7837
419513.4717
4067440.418
8309347.842
750223.4333
3013849.879
992434.1147
2679776.441
898138.8853
638793.9182
628751.0238
411985.4661
619022.7121
603187.2643
530463.3035
487117.4
434290.8819
370516.8583
535611.7977
392419.3055
461502.8256
673498.7143
739576.7371
502194.4842
373430.9411
604758.5565
551143.0219
426420.7438
514466.2535
550268.5536
656248.769
293540.0099
491418.852
343348.4286
385067.7881
399698.0239
765351.862
575423.4996
262320.3266
191360.3137
336447.3436
423295.4443
255860.3555
438208.6418
3568941.349
22050136.26
2960434.12
1626119.808
5047696.809
3992075.982
3253494.064
1908148.115
797316.5448
425799.5393
420171.28
325895.9111
454558.4129
792637.44
777782.0935
514736.4425
523455.766
313490.2115
649665.4325
359867.0359
375329.6068
433423.2157
513341.7889
527238.6686
545984.2505
590358.567
381452.0427
637809.2592
372512.7589
245618.2532
320705.6721
291531.2358
263550.9677
216975.1273
286075.4928
427752.7298
395416.8745
321567.0955
208450.0927
252791.3333
226992.4654
314068.3197
2431402.383
34601122.02
6324953.073
3032330.509
2474329.794
1660117.174
1009852.26
1217703.398
433119.0852
842285.0041
404198.8217
280465.1396
405744.7711
478030.3861
505412.2711
603850.0184
415522.9254
297154.5778
262341.7845
501830.7106
587873.3227
464850.5891
658289.5815
301030.8857
240820.8358
436127.417
413762.9972
267209.9445
258597.2254
218162.3761
375321.8558
229524.1926
289781.9787
423184.4634
227282.6069
195053.0955
233921.6715
265827.0812
261449.6748
325415.5449
340453.3208
458239.6861
582875.9115
6952661.589
5436928.02
3760111.014
3756580.107
882532.1876
3230459.811
1953602.726
650802.9198
610043.1641
452012.4808
455445.8826
1140609.501
642724.8407
781160.9797
1214828.012
428773.8152
827297.3991
299415.7557
398892.2725
401951.0917
239040.7675
320666.6906
256514.9754
372054.9301
294298.6339
201370.4447
357165.3853
458713.5499
254669.6408
287167.4992
263687.2557
309587.4836
198808.074
183092.4887
207904.0285
403568.3731
457127.5923
295386.1236
413327.5367
483079.6825
667406.2247
6186368.73
0
10975769.42
10439671.04
4789997.601
3034764.768
630646.7577
2447268.773
651673.5595
650040.3877
640612.4209
795100.9814
696719.9972
684510.0832
435718.5874
281580.8744
497141.2063
420559.1118
381023.3873
450002.2619
284685.0595
835065.1859
1008237.187
280649.4887
243597.5947
308802.9181
180628.8368
327996.4485
373065.3291
288738.2081
248404.7011
165550.8092
179354.8806
237925.7882
272617.0246
238629.6041
309842.2363
333414.5874
357474.8097
340062.6042
381023.4637
293300.7198
3240834.047
7540775.899
5879358.144
4074034.582
1973710.972
2088416.464
494789.2394
646169.3898
403861.2884
903252.6061
1561962.195
715708.7471
1055348.13
399161.137
306339.7965
376279.7226
386862.095
586515.7979
370206.0778
648672.991
331936.7908
462121.8065
702695.5495
744184.9887
274505.8004
416755.3969
637601.1559
536601.1122
519309.3931
528395.6513
298044.0349
326514.2313
275130.9597
251993.5588
232271.0073
214768.7518
421868.2705
242271.5014
291158.1934
349620.9195
428715.349
395703.0556
1882195.23
5733232.245
4710912.074
3210817.273
2708777.579
640901.3387
1104981.956
1736866.297
1722782.175
1919420.301
1107763.984
845784.0166
434311.8615
487427.9104
344321.6468
708977.6989
469325.2435
601010.8528
527571.7946
888134.7782
609509.2206
600132.9704
734544.8281
482892.066
456035.7487
322456.2306
375467.7011
448230.1614
622944.3085
646253.8376
475548.7421
376479.6822
824966.2442
955077.2377
318388.8783
338012.1721
256581.9573
312675.0866
519545.4448
347056.7521
517717.4958
1019150.964
0
13810597.83
8926236.291
8350576.625
1077145.672
1749266.834
842192.9723
710279.5615
2244353.105
607749.8403
436969.1282
872120.7859
435348.1573
628289.3864
1331022.731
953541.7882
1089005.968
1437857.68
734046.1961
804843.4688
534306.2031
633265.7597
306920.391
385407.68
281555.2543
217014.3191
686393.7526
911048.2708
680836.7832
452047.4449
770853.9292
429962.1079
445405.0609
528298.2882
381669.0512
476470.2997
334985.9152
189395.4416
673179.866
517193.8933
472452.138
475236.1039
643541.9293
481948.9368
1336853.585
504944.9802
302746.1876
568721.7848
756059.5017
457847.2279
227137.9823
186392.1159
319159.6919
240934.4002
166991.2987
374937.0467
263708.7711
265949.0097
227983.6227
294081.7931
268225.3575
222841.3062
209678.2468
342928.3225
234911.2743
183108.5274
200690.5954
142691.6854
111607.3796
160984.881
236433.8055
288420.8182
220216.0831
227670.8354
206304.0369
228846.7106
212083.1204
237094.5021
244831.8309
193459.6198
237154.8085
199365.4394
239327.5493
247819.177
631367.1914
448563.6902
241281.2855
333586.9656
232038.9693
168132.5108
194946.3788
149100.8118
171435.9593
109196.432
277623.3914
217688.576
154048.0885
250624.0796
273813.2605
183630.4854
156647.9175
216939.4298
178856.046
137637.8044
166564.6772
151453.0235
196390.5818
161949.9057
170384.2526
113374.2346
153151.6965
111051.8585
176099.6189
168852.9068
163172.9559
207810.6642
171565.2378
154500.2184
196222.3582
157134.0584
220881.2559
234781.5276
215907.7498
127852.6151
178508.2676
184698.7145
1538256.702
586696.8993
348238.7768
345902.0093
341859.2888
276132.2676
124998.324
172278.1852
121757.0591
112209.6504
153790.612
160690.7117
105601.5553
162920.7052
245842.7946
183081.9668
125870.987
111135.0922
143316.5112
143181.3614
148115.1584
127310.2983
120832.146
107411.2828
115478.4062
161594.3842
155118.1133
135419.9697
114883.1432
135528.6598
132642.1487
205863.4878
236000.6035
193520.3223
184887.0894
170377.7064
154558.7595
171072.0965
182609.0926
151433.5667
166536.5958
192598.8401
590216.2185
677825.9416
437704.3924
433432.2417
318218.7654
433896.8956
251881.222
207093.3212
113816.8249
133047.179
192488.8042
151670.1251
143665.9321
100077.725
121198.2141
114064.1116
104967.8371
109373.2182
182125.2607
147824.8641
158879.4691
125286.783
138190.9065
109489.7836
224823.2417
111289.2961
178139.0344
178025.6195
153913.8456
152404.6873
135426.6152
146374.38
159020.9816
209915.7958
190457.0811
185266.4679
179119.1296
177595.6237
240418.0124
143074.2902
151202.4824
264273.5922
562351.7325
309661.0289
390160.8451
412265.3925
293545.9693
240637.9433
152964.5107
272168.0094
147579.2217
155452.8438
130942.7313
170901.6414
211232.6985
131424.0795
155995.3347
87999.23163
83252.17548
91424.64341
138003.892
145036.7379
129001.0992
114844.8688
161180.6401
129445.2774
238624.4655
174203.205
145795.863
203797.2142
224416.0913
252816.7067
172791.4478
224128.1849
347035.378
217570.7338
325986.8728
271806.8213
153402.2655
151766.3222
177735.8063
197216.2789
200209.8402
304098.6346
793547.2808
362490.1879
338169.239
253645.4029
296563.1322
367395.3409
144855.3072
255590.7629
118580.3221
137462.4147
139506.3601
97402.07601
87337.71298
95300.01832
91592.60858
70570.91946
54060.81859
74065.90329
119073.7392
126491.4358
187941.107
174073.212
165124.5315
121561.2722
116307.546
286189.1895
204429.8755
207933.6197
240315.4398
323237.5371
199309.7288
381088.6597
240450.4048
292546.4156
366425.8708
293693.9614
171465.3471
293271.0043
284010.4531
305821.5716
248085.0578
214452.753
453291.051
263824.9376
212078.4381
226530.367
164320.0214
234981.6359
104311.6492
206199.262
117461.1628
129131.9167
112725.4581
96118.208
81447.17207
79945.37347
59779.54297
68512.66709
28605.81063
1012042.887
897242.895
295954.8288
294923.2375
131213.6934
380077.2686
324456.2002
249005.3442
279494.1275
299005.3556
262183.3887
246430.7176
201428.5634
279623.645
297305.9656
330144.2428
244485.9383
790240.4576
313721.511
208213.3919
162854.2769
128588.1774
150621.9587
118454.5926
103188.791
86461.03603
63595.26634
66303.72546
65163.8934
50721.05999
54270.32328
38620.22312
13871416.56
378573.6201
434817.3878
478243.5872
335832.6343
761272.3094
332627.3191
772965.4877
1041916.96
489655.7389
438314.0528
267524.1186
248584.3195
240516.8097
384063.7266
493247.3742
814705.3839
267588.9806
163190.2485
156140.4198
144465.9357
97732.69079
68360.03233
88368.35436
86694.93036
52451.10903
53420.60727
31991.52344
379.7908969
404.4635767
396.6052902
401.6511744
403.9410788
393.4050104
385.0357523
378.6382996
869399.2796
421107.981
1147782.796
682178.7442
621887.875
1886980.99
1853641.762
457623.1469
541085.6152
406428.1035
499915.6879
630420.8907
559764.9755
458890.1155
252775.8863
216757.2534
190782.305
160940.7319
128908.406
115404.3217
86859.88856
74547.38038
50436.98634
33339.55785
385.6174484
409.0495871
420.8449909
444.5247603
441.3329839
448.9313289
445.0178676
446.447784
434.9624818
412.5505246
388.8755689
379.4492757
0
1738929.151
4165303.567
1910877.151
763137.5782
782000.2896
426799.0211
530621.5989
706292.2531
514293.2083
648648.4678
484988.2013
263533.527
263673.8098
149422.2181
155911.2553
123768.4581
79395.08593
71793.08672
48577.66807
30726.54496
368.7866287
406.0334698
430.9281272
468.5017112
473.8987745
485.121697
491.8974447
496.6721008
486.6807542
491.2120418
477.8786473
466.6544309
435.7915499
421.5991487
397.7489515
365.4782898
1224054.799
5858106.022
4753071.725
3849679.096
3014835.554
2713659.808
1022165.135
570867.8766
1093462.325
845850.9765
602793.5036
267727.1544
213563.3672
142924.7765
125512.2545
122598.3317
64864.3466
55002.3633
41963.66564
383.0083288
424.7812827
463.6059347
478.6903672
497.1481662
510.3878694
531.0623909
529.6066603
523.0311165
531.6542298
520.9293673
519.3483564
520.0128224
498.0873411
463.8010592
444.5363996
403.5033839
375.5923396
0
0
13140551.49
5906034.192
1192450.571
449605.9547
1422960.75
533396.7317
643187.7269
591374.2851
180548.9312
223596.2766
162883.2618
160821.0629
100042.6082
59185.68836
41289.23144
32273.44164
392.4887762
436.010208
467.0711579
505.5906114
519.3044671
523.3735056
523.1721033
538.7831487
523.7767398
516.042241
538.5539824
526.5950442
526.8962965
525.1771437
525.5725134
500.9247488
483.617257
444.0312176
421.8704941
375.2713094
27645410
16908507.06
11528437.24
5659522.408
567236.5473
699302.0455
335706.7527
336613.2552
668270.4029
418188.5538
259048.7178
176560.3809
238431.1977
131270.9267
96254.53117
59580.78386
31688.87322
386.7368301
413.4013647
457.2147596
504.5457173
520.4082084
540.8126599
540.582795
521.6160773
512.0469735
473.9481236
474.6943927
475.7801405
480.0122996
498.4032408
524.2413669
520.2454552
528.5241968
508.8152025
486.5974745
449.1050765
395.358052
355.9185638
36355702.3
10462589.53
4539714.326
432167.5539
711096.3592
2281727.007
2870678.081
784412.4923
337772.6968
248198.4272
190428.6521
127353.8087
115762.0737
95571.40045
69387.09045
37810.19603
401.9122994
450.2303277
487.2075915
504.9340831
540.0949395
534.0209899
491.0968612
446.929281
409.9862173
375.5392029
364.5801234
361.1177619
384.1632496
411.5733252
454.8781372
503.0506552
524.0521544
520.6353124
518.3128764
471.0742892
441.116876
380.6515277
0
9575726.254
1466341.555
6849849.123
3278411.272
2342241.281
835952.3521
1350416.128
435114.7252
261086.7034
176442.6256
156479.7242
142515.7839
107367.3771
63795.44794
383.8632445
435.0895151
478.4962241
512.8423741
529.1801341
528.2608662
485.4169922
432.7737671
360.7890395
298.0321592
261.6912717
243.8189947
241.9348511
264.0249181
299.1569913
355.9127988
430.2890815
483.5563373
526.717954
534.7556143
505.3122623
458.6817774
408.5677815
366.9657227
91049337.97
3982682.405
6699696.988
4301265.423
356868.2414
2134690.147
1544677.194
755103.8299
287649.5266
210840.4339
141532.9651
96789.18534
60979.12746
39287.01212
394.7720109
454.7202799
507.6789026
537.4891507
539.4124229
501.9686686
434.4736391
341.221833
262.1129797
202.9747445
166.6794975
150.1614272
149.9104513
164.8524736
201.5925202
254.5481843
335.6060764
438.0873899
503.8083691
536.2326899
525.1490452
484.5549839
442.3878142
389.5799849
29465508.93
7235864.745
4700010.002
3478546.791
1169892.241
509426.7216
1838137.831
259427.3098
184489.7705
119852.0334
158495.5021
86620.47508
45165.91945
381.2021463
418.570572
464.5687141
512.7726231
543.9283353
530.9280549
464.2958907
362.4925783
262.4759689
184.1031294
133.2892528
105.4042102
93.35503526
93.31200276
104.8919151
133.1204345
180.1766862
262.0906187
364.4145129
460.8293707
526.7615472
518.797137
493.3629088
458.4332701
406.6569537
360.4980355
1344127.296
1498391.642
4466627.643
3109728.16
2594436.288
2770883.88
353644.1547
324215.7307
173542.336
154430.7303
87141.06851
47662.66939