/*--------------------------------*- C++ -*----------------------------------*\
| =========                 |                                                 |
| \\      /  F ield         | OpenFOAM: The Open Source CFD Toolbox           |
|  \\    /   O peration     | Version:  v1706                                 |
|   \\  /    A nd           | Web:      www.OpenFOAM.com                      |
|    \\/     M anipulation  |                                                 |
\*---------------------------------------------------------------------------*/
FoamFile
{
    version     2.0;
    format      ascii;
    class       volScalarField;
    location    "3.989";
    object      mctToDt_N2;
}
// * * * * * * * * * * * * * * * * * * * * * * * * * * * * * * * * * * * * * //

dimensions      [0 0 0 0 0 0 0];


internalField   nonuniform List<scalar> 
50792
(
562528.7276
528021.6752
259966.6213
255057.4602
196182.5274
132629.7685
107947.8572
147855.0841
116988.7405
127742.7215
109171.9517
136393.0892
87417.96315
105140.8876
88506.4422
75291.54704
116128.146
122051.2681
91835.18099
107314.337
69824.40484
69897.17984
103887.6776
85567.32841
64160.42881
130442.107
117902.1444
57523.17628
81211.56844
77479.63426
61235.84776
77611.62518
90485.81516
71719.62062
90450.53411
75762.11172
62495.43513
81914.67597
75078.68446
65759.57469
59674.69273
59491.64661
797656.7002
2136550.342
1413188.384
423022.6832
209086.1163
201417.4216
254108.4829
224534.1631
188215.4652
183556.458
174600.1394
183649.9241
160702.1865
104471.7889
86839.64194
102595.8687
115684.8344
111345.9264
96897.89025
109256.1838
117193.4743
132905.5571
101055.3936
78778.16695
65260.84752
76300.90507
84204.0705
70510.0996
70053.87233
73974.14289
68479.49829
86736.27838
79053.0678
87235.44461
97976.9022
67480.75234
83365.35035
64084.70113
71170.50312
66936.89675
112062.8261
109662.7013
683327.8569
2013441.821
519991.4445
333779.0849
274045.2862
188654.67
173752.9049
205171.0895
166409.5367
137301.7059
104333.6789
177054.8497
91991.46561
110951.0193
102551.6608
136993.1845
101174.5434
86819.85909
73187.80889
74337.11883
81770.16853
104466.939
71730.62695
72542.33314
88440.01942
71739.70994
79060.40937
137476.9496
71943.82629
66645.20769
77268.34837
94705.5899
82942.30536
65711.03164
69335.04684
71631.16126
65542.45929
59454.84271
59212.33789
68244.83674
86504.97253
82395.25247
817919.4076
460933.2149
459254.8746
348171.5153
244083.9243
465461.1444
227478.084
251030.6122
227852.0134
127072.0569
99106.43523
110607.8729
80662.6547
126602.1795
98574.66441
73339.23736
92366.99368
81118.83241
105773.6079
65929.69029
64471.23144
68314.61047
84323.55775
61119.32643
53319.946
67849.74464
78137.30102
86130.79988
64224.73247
57789.53591
80304.98694
74267.01379
92227.84378
83255.03773
71951.99246
79140.89821
76767.43833
66294.64281
56072.03466
73992.34097
75038.00219
73643.68504
796028.2573
368292.9685
1803917.714
399683.6888
366537.6477
273067.7215
149019.8077
205699.2835
221829.592
144172.0196
168562.2855
250279.1189
127557.9042
150068.0063
93478.11859
92843.47906
89683.36847
77602.91013
69129.08611
68991.13996
70195.78247
51296.33098
57089.34201
69517.10761
53733.66405
64498.85175
71255.47909
77308.27808
78116.48222
66471.82508
64319.25013
108346.8116
79213.6572
89779.96704
87379.93742
67747.99946
74506.72767
63058.23107
58909.28177
76716.12031
72108.5428
84464.47762
309161.6424
948762.6919
290815.692
373978.0593
372747.8509
293167.0453
278149.231
252969.8696
183417.5827
205625.5681
193436.2505
101933.5482
126955.8463
109204.3783
129409.0821
117015.811
106329.4385
110042.0824
71148.25995
71842.67777
67914.29662
63052.59272
51013.38304
57065.62675
80099.33562
73179.18412
73864.80758
63238.50209
60686.50292
90248.75014
59364.72949
93043.06626
76429.31994
81381.56055
82775.36745
64642.89831
80830.7532
75011.71766
83537.57899
78671.52808
87491.64411
105040.1227
578988.6973
2251750.06
524517.3112
983344.3129
830437.8001
528539.6256
148842.8455
137120.0507
169224.4888
192062.0708
148915.9581
130973.0325
112683.2152
130558.2995
156151.1573
153287.9367
91020.05477
103799.7222
98426.20174
73009.09532
80290.20918
53335.73472
55917.47858
70697.25365
56746.98595
56914.56355
83483.66729
69812.42734
95014.5393
78672.5611
58495.74635
60648.31016
74837.89689
74522.94058
65228.34465
85413.79955
87540.29826
63559.02203
67772.02133
57129.18649
67568.5398
128549.8824
452304.5802
804596.7129
1716053.78
1031750.816
896368.9572
372224.9748
172690.4087
190987.2942
190445.193
139456.3589
156908.2867
167257.6511
164478.0973
114050.3876
124435.889
85036.80723
66690.24254
75852.39275
91235.32522
78870.27664
115567.8844
84192.8424
73821.34407
88713.4176
66595.57084
72112.55389
64336.69294
79153.98289
67135.31755
66853.99381
61501.84785
70370.75282
74582.00827
82473.64217
71262.65249
83473.81834
56568.07892
52290.07407
61641.90503
71815.73254
77977.49079
86806.58205
410511.1723
485669.16
289924.6309
253983.4932
183942.6303
166956.3124
196056.3874
157717.9923
132004.1423
150648.0826
140866.1537
121998.961
153057.2253
101044.5099
116843.0819
90525.69279
89506.3761
107387.8322
88491.87445
81310.38466
93894.23074
72258.15142
107344.5843
108268.4346
70888.11976
59735.69932
80691.40315
71676.38769
82807.09698
69750.16152
98784.7832
74198.08706
63605.22296
78122.08334
62980.43309
106872.8261
54216.31686
54991.78488
65668.6564
53280.01867
77801.88205
110463.6226
321801.8908
2428199.029
483222.6598
506989.5873
171330.6465
178465.4313
237131.3575
153251.4005
121211.1419
120845.8238
125976.507
89391.77193
112316.8416
105458.9106
110873.6672
83040.80476
105543.8266
81925.09784
63971.03329
66466.37075
57941.23097
84680.12201
62342.94338
91192.3669
74921.884
93531.96561
69895.51363
68237.38064
67225.12031
65680.33072
69917.14567
65274.26561
90227.55397
73328.71778
82687.03163
67758.81016
55422.76133
55608.94958
70881.27502
56537.53639
63967.01907
80484.4004
306252.6998
1998965.665
1159353.216
291140.4843
160206.6131
143887.5496
267719.0939
141775.2979
112446.8437
111796.089
107372.65
125504.4566
126800.9851
161684.4864
107700.8517
93424.85351
100655.2737
95101.6402
105725.1559
79038.93029
80813.77209
61066.74322
68974.02242
74867.28965
77879.87829
80610.68197
78148.11858
66420.59844
77922.9723
70923.26855
66320.92163
85089.30779
63361.61406
71241.88486
66604.99655
78296.28809
57642.7387
61444.16184
59033.88754
67415.01227
63759.34266
98007.73228
419158.3564
589483.1082
415508.967
312800.0601
263663.0979
143197.8408
397448.6649
136273.5301
106636.1451
123784.2582
115411.4861
82659.80568
97196.65048
118171.3444
126223.569
105803.0597
92459.52793
93429.21167
65246.79136
68453.86027
79834.85201
68778.81638
76041.88582
92997.44618
95151.83767
91723.72407
74244.26141
88690.40495
61599.68142
82451.22021
64070.31118
73573.55552
68791.86293
96774.04644
98564.52758
88718.09915
89865.60207
72355.21396
73102.84264
75716.53826
85121.01792
132254.0587
367057.0619
2282106.582
1495843.006
624673.2005
282969.7816
177018.2735
244697.416
176058.8395
130815.439
140633.5997
213799.2688
82608.64792
96152.18319
102792.3259
165533.3223
150461.6428
95850.88181
105102.3613
85622.60876
69982.06591
88367.39162
126206.0138
71970.68059
80675.32884
75023.31907
85916.73359
85100.38965
65218.41114
53229.96785
60040.3066
77263.54014
75716.13041
66573.01958
67226.55864
70579.55612
67451.09625
65565.31378
84408.91441
79647.1373
82700.35442
75858.6542
136185.0192
408047.8358
473193.4547
359247.8049
305382.9828
198077.9195
170350.6552
230775.2526
125759.2855
167323.6969
123437.1686
148954.8772
111486.9052
168388.0024
92594.59327
98191.59321
141307.7569
117662.8938
96729.48279
114082.1586
119857.7618
95849.7751
80571.42902
88560.34681
58766.46147
56770.20395
65446.81128
61082.93955
54364.10759
59907.39299
79652.81004
74440.83373
67057.66907
74941.79128
77567.28483
89216.30463
56301.11905
65195.0861
87491.46199
78009.99786
83395.75507
72911.94501
97635.94517
290133.2048
1018972.444
428298.3221
293052.3416
274770.9107
226609.4468
153639.4442
184635.5454
133082.3576
110497.7366
126020.8071
121436.7525
143405.7428
121537.5518
97549.82347
103029.5674
138620.2503
90612.44011
77587.36072
82574.88606
106926.1862
88326.18264
80156.18563
70798.19544
73866.50408
70732.93005
101236.1083
79730.61988
69881.60179
53165.52229
58195.26254
66224.94475
83332.48666
84173.59004
64696.11773
68622.22103
64085.02212
60726.52121
65916.8004
101601.3865
79660.30252
121176.2359
342567.4056
2935810.066
1747942.106
563584.9705
222216.2175
219286.932
221358.02
145035.0857
140032.0917
116446.9562
120652.8751
147536.3982
127876.8838
100744.5093
116189.0473
102378.6414
66564.9995
81203.26172
83543.34356
68950.96469
74943.61806
73080.32615
96877.20175
84464.3603
79950.891
77009.95407
56445.97162
59623.853
75048.9081
63249.65613
72190.06832
83543.91239
71789.5435
92033.89954
58987.83866
90614.12371
68221.65431
82835.41712
90286.96887
84503.403
83275.89463
83985.61658
420636.7721
2151665.944
1471763.089
654015.8494
281748.5578
715270.0192
239234.4056
139724.9061
157568.391
129635.9992
259587.1696
150627.4074
94847.9095
139081.9618
126539.8589
114993.2369
146180.0352
95454.26313
64968.58254
83807.78199
96434.27044
101414.4942
88568.25397
77766.99933
76355.72683
91494.47959
63652.16593
77989.00416
67198.37436
69479.78544
71695.12405
74618.30215
66195.16698
60137.05288
48390.5055
54735.03008
51865.51013
62012.91112
66839.30152
57398.24254
77445.08672
123223.6777
270868.8912
685491.7783
942181.6883
1345075.529
355965.9557
744801.7499
211267.2636
206478.3851
134173.1963
129290.1632
149810.2365
138191.7307
140073.9238
132440.7589
105605.1775
93594.66913
102672.023
94496.73487
61858.65613
60871.88753
80190.44167
81926.28922
89519.99459
64995.86121
92430.58631
70335.72752
90450.57072
101316.6902
106850.4863
100718.4762
82130.67049
83980.39634
81412.43913
77716.29496
65687.90883
56707.97436
53266.37597
65986.69064
60138.79021
75793.65601
76824.02685
133338.9854
343605.1223
3319541.325
431412.1486
1098546.412
326988.4203
214318.6649
154015.9052
236832.3436
153213.4129
129045.6569
104664.7049
134300.4837
129553.5005
102323.0324
75757.61362
91616.5144
98266.11276
94466.90589
81532.81123
71837.2864
84620.19484
80064.67709
86810.12234
59531.13888
75700.13558
70846.47108
54283.07025
63534.06994
63948.06151
59690.55283
66370.12705
58158.136
73950.12803
71725.24549
64501.67306
62372.92938
54227.17848
65151.62057
77087.51509
86324.97588
80772.39008
120666.097
242275.4531
1046047.933
569632.9031
374795.1486
210334.3802
253360.2444
187915.7
202429.7234
201666.1154
107294.4458
87056.77702
122249.1097
107258.0046
95129.20661
101955.1998
79656.92787
80023.95638
70501.70215
134995.9228
72745.96497
71922.41798
71236.65466
69560.93572
54322.6771
58989.22656
57694.95063
53713.27849
60572.43576
74006.76556
71934.79412
78767.42516
84715.28047
81601.9223
63902.81883
81889.28855
100379.3905
73257.5744
77257.1849
69367.51485
79395.72663
82949.60323
91409.86825
168747.4249
2036759.875
404055.3466
275424.5407
246195.6119
268446.253
180008.1998
136183.3716
108538.7898
101410.1449
119907.4675
80004.62652
106450.1067
54642.96741
83977.07162
85966.66336
52687.22564
62454.46787
70690.57864
64979.04548
50473.45213
62765.75738
71478.71028
64879.91999
68356.70245
70625.6968
59365.50257
62041.22783
61879.93296
77694.87106
73770.32047
75321.58929
68803.14047
78527.34904
81233.68995
73031.04377
82047.45179
68789.94416
86759.27897
110030.3748
91502.38826
105814.7129
256154.2569
2637349.939
635964.3719
342317.6804
283819.4508
321045.7709
208132.959
189271.2864
212716.2733
175543.6198
138524.8637
103751.4395
86414.44696
81424.18758
59453.39431
70801.42759
74785.73007
64564.4312
80822.23976
77120.455
64428.51742
66470.96049
55649.75812
61608.24456
69248.62087
66384.4306
61946.01034
75394.5818
92322.29395
70747.13766
64980.02697
73894.50852
72877.36187
66532.60426
85753.93584
65333.6761
75679.21146
64915.85727
97738.27026
75667.33003
90932.38452
127350.8745
571390.672
1299007.86
431154.6705
1232381.509
349534.3173
258281.0576
261120.6596
208894.3371
213473.5273
142101.9432
164402.0489
161913.9975
151826.506
91782.20416
135672.9514
79394.17726
78546.81184
72082.88053
79142.44749
97867.827
88709.91658
85556.80319
66764.68578
84104.55267
52307.86731
81302.40767
67917.90362
72010.87937
82803.20625
64272.56501
62052.72639
50095.65547
55550.53663
68995.0421
60117.92585
66557.63736
55431.5588
54057.76967
68744.34893
70550.4985
88643.95588
112961.6043
296522.9407
347609.7063
1478306.71
957875.4306
238011.0429
323805.2921
252713.0327
220241.4806
190816.1571
120709.7911
99278.50862
116754.5159
91457.17001
97953.96155
99243.60287
94243.0011
76434.65047
71958.92794
69936.08406
107986.2296
100626.257
89312.18374
75351.88046
85124.80608
57292.82265
73397.25499
68844.91652
85953.43151
86072.57822
109393.3798
81876.22264
70009.8166
65929.67024
74954.43772
75600.58879
75704.7518
71196.41478
56841.12632
69382.15527
64186.25904
82194.98069
100889.3545
305568.7318
3102728.893
1756067.364
427957.9055
593066.6699
371638.6663
208413.7291
283434.8568
196097.9938
116889.0248
105915.4016
102005.6988
91662.53468
112821.75
79246.3892
68036.25351
87204.11483
74129.48896
91824.13855
65306.759
103347.9785
91360.88588
84573.75156
73854.15836
72476.66509
64995.78309
77465.33827
75697.16696
79460.08937
76623.39558
80749.9236
63994.45816
61920.75719
64237.5783
71300.53207
73264.19759
81863.82633
68154.124
92281.74137
105148.2679
82658.58006
108283.0001
400759.1256
3243615.635
501714.1923
995032.9758
302618.6856
190308.4806
170031.1691
162579.5434
195160.0782
136366.5434
183966.0371
150130.2326
94941.20958
83217.76016
75584.02465
72230.74631
91977.91715
79042.45517
101322.7516
82302.80306
105066.5741
117191.5991
74327.60153
73413.9483
74790.08152
74231.56613
60097.5963
57122.1947
60509.43548
62293.2938
64837.81961
77778.90878
58184.64746
64875.93824
62189.97676
72627.4954
100149.5423
79794.41357
68292.40235
74271.83796
98936.30329
63071.18159
889387.9132
973370.1959
260876.5647
206014.4978
313168.9401
229386.183
283173.6952
220046.5402
199368.9786
201781.2968
162327.3273
111601.6588
125497.6215
88699.37819
90480.10767
89243.45682
64375.85666
65308.09729
72317.16941
60816.29944
65950.42869
88167.94715
80979.98422
76373.89724
60404.42724
79911.03043
64222.65534
63816.46987
53394.03513
78689.42027
60905.35189
62748.56514
69503.17183
63111.12177
70457.43922
72757.77145
71929.02863
84887.22924
77785.62952
82944.61193
111791.0244
77294.15533
359936.1404
456448.6476
478695.6724
203135.9439
198443.3172
147474.4458
190157.1668
204522.6042
179461.8641
203685.5992
133799.1585
110332.7869
215155.9854
92277.40113
87047.31688
83465.7292
72674.37647
72804.63949
80541.82778
73452.07284
61905.55623
80039.22417
88841.48831
91712.27911
76118.44506
95718.55411
69688.51404
62770.62094
58182.42706
62765.60089
65765.67096
62486.52112
62636.15156
62747.33814
52813.3085
70624.60255
56328.27991
70980.7614
60857.2107
74854.39588
81279.40233
96855.18836
351446.1205
543379.1329
196382.0571
205980.4602
413161.3298
332246.9653
177002.2861
176428.6622
141328.6346
143981.6528
126156.1707
103099.6734
106356.5601
95799.88853
85487.10293
117451.2147
87632.01218
61862.13266
89914.3422
69455.62318
71266.55852
87939.73624
81151.1881
69847.02749
63822.70894
73176.62677
63009.79606
80073.92457
58486.62787
56620.95828
71977.79566
79429.78836
63225.69285
85772.72437
79608.53014
58853.78591
70161.12391
69826.79504
68748.05069
79289.3646
73296.02261
70840.47529
527974.9215
768847.4387
407057.7307
254957.1032
398817.7129
260283.5433
330041.0958
155413.211
132695.1861
255100.384
123922.3547
116413.913
94281.42026
97043.0817
81148.12568
110873.1563
89958.78748
82951.53287
60995.76919
82261.16743
66918.79875
73293.04575
72688.59992
47192.66709
65647.26306
72916.21862
70147.95016
71836.99155
88789.79041
93398.25347
81681.20439
88650.74758
110433.7718
80330.68354
86761.62659
71120.33866
66648.4645
61041.00526
65276.93428
71894.62502
85362.50115
91087.82571
628997.7226
743840.5197
485684.4864
1060022.938
761541.388
261895.4221
152689.0817
324723.4332
135316.4684
127046.471
181544.355
151916.599
152284.7447
87534.60607
100940.0208
104231.3086
83106.55877
119780.4291
76325.46233
85988.40612
60943.7669
82043.88222
71717.75162
91173.69221
75618.25853
103116.7247
81329.87043
83691.61192
70649.78005
85063.04636
76027.0306
68999.46135
73389.4127
82896.88631
84003.01386
66622.65535
78626.65127
74419.92389
62873.27772
77971.75481
65209.55654
93867.56357
468810.3041
508521.1312
1367184.047
1003878.08
742696.0258
226951.8049
178671.6836
151518.5513
164492.0094
220405.0306
145094.9674
184704.5716
142227.7421
178015.4892
108778.3022
96285.00931
86144.92005
85914.27799
87776.07582
66750.00176
53222.15715
61302.10566
66804.42536
65435.68145
58408.50408
70399.67363
84999.73735
87934.02998
60253.37041
75120.39577
64242.66312
56882.88323
70295.7514
69456.38412
79800.7381
67522.48731
66274.20767
69282.74323
85252.83906
69788.25972
84815.94807
98961.7625
448833.3146
426963.7867
1224775.131
595450.3115
246756.0424
658082.3054
570562.9108
270072.1011
105212.0431
108086.304
138307.2918
112250.7954
107009.6412
110780.8147
67399.76206
90932.65085
72435.62044
65255.29004
87449.30283
67161.89875
59480.39843
57272.13569
58438.96813
51364.30612
62927.47739
57748.03833
76999.98355
86673.76958
84405.15404
74152.60956
63687.48822
64973.22782
71792.85708
58848.55266
83684.95998
81355.31718
99988.86942
75088.97474
71265.66337
63513.67113
77244.91282
103499.1705
1097992.697
1104233.282
1414232.647
339214.6795
364863.8763
268152.9135
142101.0282
152713.9404
116876.8411
170443.3947
107479.778
129337.1436
147092.2592
101066.5149
77328.05791
86414.42044
77199.92542
77602.99399
110702.7423
77999.85183
69102.0106
72559.93035
65735.47852
70922.20206
78376.11239
67670.65451
61145.45727
71158.16495
67005.52294
81634.53501
83288.54451
77175.12758
70720.83737
78359.76473
63625.04703
76215.63257
87822.92529
77028.60255
81192.60081
72966.93997
80075.71974
97329.05883
614564.0228
2772850.03
1353466.012
262662.4529
150499.5881
185502.6043
165642.8618
129859.4363
168094.106
114257.5648
104041.9507
165753.5206
131866.4796
121622.4777
105567.4272
114284.0654
110526.8736
80645.99159
101338.5892
101896.3512
101578.2324
69952.76842
95365.91879
60397.25136
67997.52013
77845.12764
69638.88786
69700.16764
80306.62112
75222.6458
93681.44094
80423.62544
71819.79493
65241.21511
71924.0843
67757.59691
73038.17754
71995.09868
58705.12132
84470.37257
116874.6252
77560.6117
336595.3067
2318031.521
1269874.132
573013.7986
382433.5799
435115.0077
168291.975
130908.1588
125556.2462
111479.1219
94325.23747
101745.2944
98620.24165
80782.03607
103923.5125
98942.2484
127436.5786
78395.58561
70579.54871
70343.68915
85254.80575
67815.49043
70212.35071
68523.40153
72205.37286
72325.50112
67996.73715
81830.09019
58913.21257
86182.95957
77014.42178
83446.67185
109362.569
90720.02236
70750.87011
67721.57619
62809.58879
63891.35937
65571.18022
60335.44063
69064.02314
85087.14839
327990.176
2132161.257
1420499.679
1093956.524
453214.0315
263154.2147
164120.8106
149033.1099
181846.1672
97311.51101
100705.435
95336.68911
79036.8168
96016.54608
98751.70196
89443.20745
99969.16579
79756.59719
79319.33041
85518.21535
99628.6112
81539.43341
74213.25698
73747.06027
76319.75927
70714.30252
68560.13197
77716.83331
76444.09833
59321.27978
77322.41662
74284.26353
76691.12006
76096.39639
60018.80155
58968.46169
80519.45773
70447.37635
77506.01549
60522.9872
69444.52463
92769.22491
370021.7474
2132937.806
1306984.158
255276.122
239706.2278
269688.9847
215436.3718
147733.0643
138598.8995
149780.7886
123944.0219
165711.9014
143219.3522
96746.05853
118594.7533
74013.57758
92883.25776
103914.7289
101867.0266
87034.40546
111644.6134
102815.3668
75153.23573
70719.58403
82975.83028
81638.61555
83150.57186
75672.37559
79436.08814
61547.31356
80720.01162
65038.78654
65273.36876
75153.42404
89941.84513
56494.88534
68962.75482
71428.66698
81689.04359
61997.81108
73539.66738
76896.06498
365730.745
592310.7374
396680.0473
221543.9091
168946.3887
165465.0847
171093.5105
144828.9009
141221.8572
132986.6887
123074.4595
94569.7254
138711.7798
118684.3868
123487.3233
83097.8919
109158.6244
93993.62002
75184.08003
86084.85727
58676.13972
67382.09069
86818.5621
89453.4589
71340.45507
83018.45936
88539.05793
83239.16365
118635.741
83746.48363
64268.62741
71845.10786
72910.36159
64445.71159
74363.49615
82693.48097
98618.72786
99883.38807
82075.04898
80756.58038
84857.10287
80566.57889
246786.4737
323463.278
263033.2776
179716.5653
190258.6059
191356.9643
127496.6305
192513.1747
197464.2814
170670.3061
122993.1866
81314.41591
97997.21782
119789.8841
102829.0833
75507.34713
100074.4083
85759.0731
70188.20512
65171.96943
81893.66876
113503.8387
110510.1204
81115.12272
83324.85026
71713.51579
73425.61705
89818.0411
102588.6584
92978.68905
76819.59734
71407.61463
57933.0436
74099.48013
81690.93405
85009.17603
94710.27639
110737.0139
105122.8546
92570.65037
116586.9291
91468.98139
323508.2866
992577.3535
395552.9355
344165.381
265317.5592
161590.0028
184611.8315
232842.7106
227614.2796
178945.6772
131074.598
130229.5178
106282.2962
162352.8601
106932.501
83243.82145
148513.3917
72708.50924
76046.96989
56681.17532
90631.20037
103244.1096
91345.52872
81030.11584
74847.92003
82300.72671
55165.83598
62554.59432
87770.33631
81460.51061
75777.97473
65925.54345
74086.17002
72793.40042
85361.87507
64098.6106
80340.81744
96458.82831
134937.4606
84023.91576
129554.909
111105.1217
551956.7577
493345.0735
224916.7551
164042.3673
151456.6335
127861.013
163179.6225
123644.3986
167460.0314
100373.3385
120964.8391
95146.67277
101867.7002
87494.29298
90274.30277
96611.86406
112740.9316
84747.4852
104481.2808
77885.94535
76483.40214
123834.949
99152.7581
75517.83089
101562.3161
79999.10051
68935.47805
72906.58687
81503.64914
77732.59662
79157.97684
70784.7688
71980.16124
67778.4061
75670.63969
63769.40238
71066.16214
90569.81375
71707.13722
80696.13291
81092.73458
72499.75205
156229.7028
146350.4073
126737.2596
93883.86986
84314.86484
80866.0268
68391.79325
73186.90952
60880.9327
74194.38737
62889.57154
47003.97673
58583.94912
48079.8932
53620.78826
54783.86121
57303.44114
50695.60388
58031.42674
67013.92994
41060.98963
42641.90611
51730.24374
56081.70836
58653.33817
58745.13015
49094.81809
36695.65404
44371.54269
69239.25462
55730.92134
53214.78395
54966.64885
57126.00515
61418.25767
49098.15119
55121.28592
41010.68003
39429.88584
40724.56775
33166.17499
65159.45106
122550.5639
93645.90151
105135.5598
84455.22356
94024.30627
60918.3151
62972.42557
41295.13741
53071.9888
54544.1483
48290.0011
38016.87538
35039.12231
43586.10562
44207.85782
42328.85253
41330.83713
35651.45758
46990.48125
36835.26401
34961.23543
36954.75073
34657.45755
43191.21093
42581.08089
37320.85709
33535.26507
36806.37168
32783.54984
41277.55901
53604.47049
49480.3419
50399.4523
36833.77306
37797.37385
30351.84684
36866.8035
36145.5464
33436.64429
44287.49808
39340.63778
70155.44557
174171.5992
73884.06006
74018.46116
83440.88162
71214.70304
42622.20702
40629.86776
40721.41852
37792.6213
41055.17156
46949.20564
34072.3252
25563.5108
30708.41726
39879.731
37350.6722
26144.45287
31045.29133
29507.44456
28072.26727
28207.6515
29605.20534
30363.98768
30883.3558
35619.77164
31142.13628
34874.29415
30460.70722
38454.37953
39953.05022
38525.08598
36634.28426
32094.58459
32149.15669
33417.9269
38224.32723
33163.53624
39681.51609
32643.81428
30411.37453
40402.86343
50658.21014
192551.9679
86040.16566
78627.73397
49526.394
59314.53561
45982.47025
38053.02933
45807.63645
38621.81024
42824.28283
31429.71058
31380.64421
25592.6743
23767.92429
30525.57441
25952.55988
22542.01539
23164.18882
27483.34698
26895.22104
26275.13532
28456.84609
31063.51818
30099.47808
30452.53176
34075.82836
36700.39897
35434.02608
30258.25436
33413.2439
43988.71035
40347.0484
39527.30004
43540.64758
41966.43801
40754.29772
47809.65077
39754.8715
36457.44954
36201.79654
48025.62178
65722.5521
162262.5628
83308.00604
86154.95577
68450.0633
52672.54872
45803.18176
40525.00757
33538.4342
42730.03845
41637.04752
38247.83179
29026.47961
22166.23782
20366.38099
21376.25812
19131.89627
20315.16224
20635.63649
22029.36358
21620.49007
28405.81702
26261.58709
26574.14343
23605.32714
33569.87395
45541.14759
44071.95937
36946.93423
36405.13161
34403.79035
46236.10098
43768.36465
41575.21555
49147.79135
44548.86746
35308.54604
38789.12016
40037.83924
46543.02155
38207.09183
43016.5031
51901.38737
160002.5454
94738.96311
75137.9203
56697.22389
45503.41969
52315.75374
41136.19318
33773.80932
37324.69238
29915.38279
28660.61757
26279.1393
26226.7749
18607.21093
17468.42854
17826.04544
15030.82118
17776.66006
24114.58565
24419.6634
26432.92744
30090.90365
29601.05609
24922.55311
31900.27322
41087.2997
54309.22252
49247.36834
40676.39989
53448.10591
69075.70516
46328.1589
44313.2892
45181.11826
52932.00435
52215.589
38583.62801
33776.69032
38649.00458
47095.9807
50889.99271
67723.57655
173997.9595
68049.81396
52585.56426
45751.98467
41565.26138
38178.81038
36872.31414
32447.94566
30981.06318
30232.16806
25319.27325
18401.3733
16768.61107
15094.90028
12406.42659
12928.8808
7476.676635
353621.0228
85463.61534
96339.34344
84017.912
84905.00023
56274.81635
89324.16673
64752.60582
61759.40678
59525.53441
57197.87763
63404.36548
72623.41729
58202.31685
52246.90185
51197.3833
85964.96755
125484.7875
71521.52908
49599.08865
38210.09052
38244.85293
35514.68996
34364.81749
27262.08247
27489.41708
22884.97933
20650.44437
16313.45314
13171.33093
11618.69283
6886.262477
153236.7161
136387.534
100026.6935
102798.4092
114300.3765
108647.8462
80956.21495
65569.95082
62032.60318
77016.02845
63196.73859
56018.05708
59402.00679
59818.91985
72813.54796
136572.1946
67098.21912
56137.54239
45950.29286
36228.98194
36756.04202
26657.76804
20067.94259
24744.54577
17224.0096
12038.85964
14620.00688
7775.064694
89.29590333
91.44959703
93.2015669
92.88770048
93.54884649
93.9444362
92.86601656
90.36053021
192079.5629
101329.8005
142158.4106
118118.2045
139898.5466
129491.5972
117210.3421
70440.60053
99032.31869
82825.95696
83127.29767
87159.33933
83272.65212
125537.7653
77553.00902
54680.19303
43872.57602
35257.0397
28488.30461
25663.65158
20887.53407
19390.58565
13876.75766
9226.235327
90.91104485
95.63021299
101.4829697
102.6473673
104.9106732
104.8408436
105.699146
104.7362622
102.7361756
100.0385173
94.98719591
90.6677292
293995.9727
198351.3617
205361.1513
262135.4332
151410.1841
169499.0145
123421.2037
81969.0004
96693.78443
93528.47495
96626.09422
83449.49471
51801.69479
39235.19285
39653.31666
36339.13001
26674.81659
27634.65131
22102.05328
14558.75305
9137.47101
90.30891935
95.67311939
100.9849326
105.0229999
110.9617817
113.5166061
116.2515763
116.3579426
116.3708269
113.7458086
112.7735457
110.4942748
105.8691319
101.0615709
94.52342192
89.73559679
753149.5062
233190.5836
227601.5939
246546.4415
130995.9371
139703.2611
153776.1089
67922.42655
89718.31874
79884.05153
121222.6637
61573.98592
45892.7116
34541.22256
33554.16322
32289.15817
23097.2452
15966.83656
8664.052012
91.22890725
98.6334864
105.8209899
110.9522874
114.954418
120.9898587
122.6164182
124.3783539
122.6848231
122.5490819
122.82884
121.6303687
118.0899814
114.743255
108.8465385
104.1794523
97.78344061
90.4958155
752436.365
210840.1716
198502.2293
426403.9882
219448.2904
168539.5931
113323.2477
85107.05895
96294.43238
105659.8373
58159.31957
42044.53096
30361.47985
28521.33381
21193.02057
17225.65501
14076.40137
8128.26885
90.6028535
99.10704096
106.0156989
114.5630708
119.6762751
124.5572157
124.1526106
124.9341623
124.454166
123.9475479
122.9237412
123.5155731
124.5338461
124.618445
123.8769154
119.5695691
112.9484385
105.2225612
96.94593487
87.82470371
1130131.131
392360.9609
445070.4051
222300.1787
156011.749
135389.7272
124978.0909
119261.9235
142123.5582
94617.70584
59274.69305
34485.43892
34606.79157
25527.98664
19348.71788
15373.098
10465.96732
90.08563087
98.11634072
107.8675224
114.2994255
120.9101001
125.2213387
124.5824233
121.3502916
119.4042242
115.7685337
111.2693168
111.2837858
113.231287
116.8340705
122.7797928
124.1859135
123.9132125
119.3837231
111.8793487
104.2053865
95.96525949
88.94505036
5820498.663
696496.7657
173966.8864
259791.9892
121985.5226
105845.6763
168408.4538
148909.5812
73204.66383
49874.55355
40340.94429
32090.46156
26039.41724
19486.59192
14434.9121
7658.18252
96.06550576
105.1285973
113.598843
122.375622
125.0649714
123.0502634
116.8961289
107.8201104
97.86285135
90.64358987
86.31377161
85.86758384
89.78095089
96.61817758
107.753233
116.2396488
122.2342493
122.9929914
119.432764
112.3998045
103.7373145
94.19867792
425875.2862
457073.6784
214929.5499
322573.5581
309563.7139
240809.2527
133125.7388
222078.6614
138015.2032
42496.57146
41777.05988
33540.59049
25658.49599
18439.85168
11404.40895
90.66675138
100.4053976
111.4127153
120.4192024
124.2444328
122.5235615
115.5971474
101.6448391
85.20640334
71.89681932
62.83770143
57.72699864
57.59356699
62.37449267
72.54929656
85.95994452
100.5908003
114.5381279
122.9482358
123.9834383
117.1512454
108.971959
99.20033268
87.82008057
875783.5995
759443.4103
261792.8355
398607.9717
204991.1893
160177.2124
299101.0809
114793.636
45244.45198
38975.99578
35119.99797
25006.7419
16410.94255
10005.99114
95.07463817
106.3334136
116.8988059
125.2307747
126.5680095
117.729882
101.3867576
81.72569717
62.02562691
48.04737746
39.77990069
35.90077016
35.90298853
39.83375333
48.46273869
62.50754493
80.80299322
100.2226792
116.8658943
123.2506752
120.9100036
113.6723314
104.0335576
91.75983377
7059866.445
340796.8944
277918.5195
253378.9745
143974.6839
433629.8016
189632.9089
70924.1885
55026.72832
35031.57921
28646.43871
28059.35006
15475.46798
91.40883593
100.7181477
111.6243356
120.3713424
127.2332503
121.5996866
107.4535908
86.14720778
61.88246918
43.57540283
31.79160304
24.98413659
22.14253005
22.20240414
25.06759703
31.68147549
44.01341928
62.03808901
85.83971893
106.8025811
121.0827641
122.3381049
116.5930331
106.7764874
96.7313603
83.71334958
203263.2397
266134.0964
306968.2079
221037.7252
211897.9147
219423.2098
79332.80211
45812.47842