/*--------------------------------*- C++ -*----------------------------------*\
| =========                 |                                                 |
| \\      /  F ield         | OpenFOAM: The Open Source CFD Toolbox           |
|  \\    /   O peration     | Version:  v1706                                 |
|   \\  /    A nd           | Web:      www.OpenFOAM.com                      |
|    \\/     M anipulation  |                                                 |
\*---------------------------------------------------------------------------*/
FoamFile
{
    version     2.0;
    format      ascii;
    class       volScalarField;
    location    "3.989";
    object      mctToDt_mixture;
}
// * * * * * * * * * * * * * * * * * * * * * * * * * * * * * * * * * * * * * //

dimensions      [0 0 0 0 0 0 0];


internalField   nonuniform List<scalar> 
50792
(
496737.0696
292224.8567
149677.555
215282.3908
167906.4213
114762.3136
99154.75468
116840.3784
96188.15111
111654.2007
83700.09623
104115.5571
68763.05096
82233.53186
77383.20719
58919.77446
91653.99482
92180.41475
79654.40084
91021.88424
61019.91921
60938.36191
81665.48667
70789.35145
55831.35914
105590.1945
56524.85676
46929.80385
64477.41461
59874.30519
48990.94271
64292.19159
77395.56173
62915.19314
60270.13953
64887.22957
54367.99086
67056.22903
64494.97954
57116.85598
51483.67254
51373.1245
438086.31
1686819.907
1179137.902
374416.1001
188193.696
178089.9026
183752.0166
140730.9096
157625.9878
124830.1929
138992.1167
119584.0865
116470.6558
88470.67596
75193.25538
80771.15433
99943.17284
87097.78406
81229.08599
81028.74403
82087.44896
78347.97852
68289.57156
64978.2351
56512.60882
68793.60149
69947.55901
61687.57428
60926.57979
58570.70178
57514.03399
60084.76278
63639.06009
73831.48308
74188.53034
55908.79888
67290.39726
49219.68346
54852.30704
56245.39997
87651.3849
92854.01813
663305.3052
1827902.693
470307.1298
308930.5126
253393.2257
175528.4696
109401.2177
168298.4235
151349.297
102764.2775
94819.30683
146885.7716
80192.40269
95381.3451
86226.8146
117853.6045
87557.76951
66927.71404
62047.7105
64333.15735
67327.61193
77032.47797
60908.74433
59059.84744
74721.17581
61952.04988
65127.98665
92003.0957
59599.46549
57906.08575
64328.92417
59158.29405
66137.77343
56288.46115
54534.58981
59643.91719
57110.58068
52337.03601
50308.98094
59294.27636
62275.12851
64095.52782
700743.8199
430533.278
417867.2941
317013.7816
223442.7908
403636.2174
201455.5119
222344.3007
156462.0048
112248.3603
81943.61094
81687.0156
72363.59209
107973.3737
84556.15426
65800.52097
66617.21879
70136.13381
80760.02199
50827.17676
51465.59062
54000.30351
72945.85218
52782.04265
47516.102
60567.45347
64476.48602
66347.76124
54530.09324
49930.13285
61405.89314
57485.10089
64063.87231
68830.34862
60265.63161
68581.42785
66013.13255
58388.13017
46226.88305
58592.76142
63312.44303
65576.93123
591559.1762
329838.9419
498337.3193
279048.8851
296933.5757
234536.6595
113609.4528
165098.7858
127782.8025
124963.0817
115968.187
175902.9291
101362.4545
111968.4401
82944.75683
79335.51549
70928.70125
68871.98978
60654.4238
58766.5981
62120.31838
43219.73759
46813.17068
56518.29324
47090.65465
50495.62596
57313.39704
66830.01106
62547.58899
51211.70164
51693.59551
73013.19479
59808.23954
73597.19263
66867.68766
60300.44917
63289.69236
54274.64647
49450.68958
63719.26458
59262.129
70749.56297
284094.9562
836966.4896
263083.8276
334578.0325
238814.5451
258255.9907
233850.7208
154425.8344
131806.0677
170703.8503
151056.0413
84709.95233
113244.6474
91588.52823
106329.3975
92201.4545
93273.95904
98327.32622
63097.09819
60906.76357
60510.14217
49363.86198
44950.32347
47491.00501
69810.21023
62894.39289
62108.30851
51086.27818
48628.72446
73207.59584
50912.94431
70968.12011
57021.00506
63389.50947
65226.13797
55920.57776
70809.18248
63393.40354
68706.81874
61068.6832
62055.10866
87539.04101
445800.8202
2133872.838
511711.5888
901095.6781
740402.1809
375253.006
125873.9618
128484.4532
141800.1906
151894.0351
127320.6693
113757.4086
91546.57787
114946.8375
131086.403
132728.812
77148.11231
85881.96922
77425.70246
58256.12604
60455.35951
47316.09609
49148.59833
61338.95184
49036.53259
48673.6434
60137.65045
55101.98227
71863.14655
64329.2588
49941.14704
54028.97005
59956.11607
66563.98601
58099.49233
75030.97892
70031.27109
54084.67433
57489.80563
47970.82853
53068.67541
93904.53148
425603.5171
723472.6194
1251825.986
769123.3831
661145.8842
245452.6323
143497.0582
149485.5516
160907.9689
108875.2561
122042.6642
142206.1626
136688.6279
97580.06128
99514.48089
69975.909
57591.42751
65131.8989
70649.25351
63950.839
81154.22192
64074.33522
59973.18848
70861.17296
56069.92524
51581.69682
50934.70242
61267.40232
57834.96271
55467.81601
51094.37728
58072.17324
63522.79583
61199.54634
59935.6281
70872.02885
48885.88396
45997.7386
50781.01708
62015.6933
62148.44565
66479.33534
365784.8812
415399.6914
237465.973
230462.1734
166906.7786
153266.4973
174428.0798
120675.8861
115580.762
113663.3594
121190.5196
101644.0244
130921.671
86823.52034
89342.52853
78279.9294
77399.70726
91586.83722
72764.6091
65570.2018
79427.18018
54150.38443
83035.60496
74653.85717
59954.93135
52754.91789
67503.77048
59254.5904
64660.06446
52074.66722
49792.38134
53261.55132
50329.76926
62605.54061
52648.09806
66553.62525
44805.11022
42739.95689
52439.76777
47032.23749
55307.85083
89334.27267
291713.7407
2069512.341
330723.0142
449653.9679
151949.4208
152090.3599
172302.7845
134399.504
108490.7371
100677.5608
105230.5923
75511.05354
94634.46225
89595.70398
84381.30478
75371.56725
89870.96942
74554.64594
56781.90332
57812.03953
49666.26268
65969.04619
55356.95979
69005.87484
66410.60375
81355.13703
59643.176
58331.2189
54297.80076
46591.8519
62220.62757
55714.05867
80672.76402
53748.82786
70476.7054
59496.81302
49746.4408
47684.12893
56028.4353
49102.43679
52065.90099
69151.44056
278983.4345
1905422.355
380115.8955
282370.447
152616.8078
134672.6584
234365.521
122603.9496
87166.54173
97656.71216
89197.28102
112127.7574
93363.19762
116947.6099
75972.18963
79124.40381
77670.16284
81165.03384
89670.54759
68626.73851
71507.41328
51296.5146
56585.44449
62185.16571
69673.7163
70358.75743
67663.51878
56178.78355
60680.0417
55910.77937
56635.12557
70758.4641
54548.41647
59711.31505
52488.11344
64726.09068
52215.60085
51482.26696
47974.91609
58498.23061
54707.19015
85329.08628
355759.6434
393665.0679
347472.12
278183.9529
231605.0932
128224.8938
228897.5567
118452.9168
93917.95412
106816.5861
97652.18624
66807.91197
79465.37287
77931.85939
94324.83296
92089.80297
79634.51907
73571.40811
53929.13305
56838.59164
63514.10256
58795.22464
63608.65501
71663.29229
77689.12501
66409.46662
59884.26953
62522.62775
51640.3035
59948.71201
50759.68243
57318.99689
53605.09154
73600.32915
76588.7024
68450.08846
67921.45776
57483.04438
59606.64294
58974.76157
69702.28344
98300.07054
262598.8819
527590.0883
1107383.956
521671.1565
246877.0017
148749.7339
123629.1955
152600.6893
112676.5075
109216.1455
167376.9951
74138.55436
83934.87592
90188.84589
110275.7892
127557.8059
82058.24061
84040.26279
62994.1314
52760.69626
66120.33405
80160.69501
53756.28177
65135.27366
61064.48258
71281.73598
64007.84721
52817.5312
45094.49296
48779.0292
58886.11295
57206.10455
48861.78597
50605.70867
53125.26695
51333.04677
50123.31936
62088.11105
64345.28905
61123.70796
63417.84144
96072.78208
239365.6016
253059.0497
298821.6043
251415.3555
167124.9919
144897.8246
151972.3246
94242.76511
105585.8089
109597.9112
118186.7602
87782.38341
146498.2549
78101.74026
85592.40435
93917.94322
100435.9031
79358.34745
76215.50572
89587.56822
81359.78452
65497.27581
58765.02428
49263.53568
50323.76757
52175.94783
49798.5497
45662.98711
46555.90423
61094.73513
57479.78806
50230.25751
52513.24905
64651.71692
62542.02625
43049.3943
47329.92584
57139.4314
53391.00651
60524.96049
58533.28638
81705.66401
165452.1905
758144.4586
335391.6889
242661.109
227672.3624
186008.8377
122296.4052
114111.3489
116769.4869
96198.38615
105388.953
104111.5142
125457.3887
95547.66544
85365.16206
85367.98768
117162.0182
76356.77796
63536.72543
69847.22299
93450.79965
70451.47969
61291.79463
53198.89542
57849.98181
52881.59617
75228.53062
63181.45451
55391.63008
45378.28661
50330.42877
54469.3342
53966.39603
57805.9134
46822.37765
55545.44232
51325.73699
49018.1862
52263.32979
69205.05874
64498.52179
99013.05744
295947.5546
2258188.516
1361594.046
496883.7805
196861.8765
185270.5748
186416.0753
126165.2507
120435.0974
97836.19251
101286.2571
120343.7512
110942.2074
80113.17402
91630.0228
75548.60589
59200.04747
64654.87729
69124.3855
52781.78089
63112.72208
56655.36231
72176.59266
59580.20792
64755.96735
63459.83469
47668.32387
49978.1624
60886.2737
52036.12885
62828.33514
70470.59586
59781.73495
66900.52315
51875.73486
72804.03155
55292.33888
71071.53177
66891.16148
65821.32486
65812.6777
69500.03829
368900.0155
1902532.414
1275113.841
565859.6731
245577.2821
556715.6261
179931.8007
117510.8389
123287.7336
92872.60992
197352.1631
124628.049
80536.50308
101364.0397
79125.43833
84912.85533
93191.99098
74290.60508
51327.36258
65838.8644
81480.59448
77329.87562
70886.32734
58992.95093
58394.63405
73511.4572
50575.471
60068.41413
51746.9357
56829.96446
59286.26934
59744.75115
52407.40655
48867.17981
42642.47139
45385.33293
44904.9445
52002.12646
52291.17927
44545.68556
57991.65636
96354.35487
219265.4426
616505.6903
765159.0051
949671.6281
294674.7606
299913.1347
183551.4825
173941.0892
106099.694
113045.3744
122016.3032
112068.3543
105682.3921
107367.4004
93095.17798
71405.43485
81854.32615
69492.76684
51593.47492
53307.09329
70035.40735
66912.69034
71628.36627
53900.1025
65363.83565
58588.13595
64351.59663
81963.96796
73754.25402
79214.9606
64108.40058
65952.32275
71886.98294
69089.12257
56910.42666
46949.89988
43415.24519
59021.88771
53805.45958
53148.81411
61657.82093
114050.6235
282218.7224
2331947.861
379509.7518
464551.2853
289834.7915
174289.9513
114665.9932
193221.2797
135242.5521
109408.8714
86037.98007
105082.4187
83112.85554
74291.72365
65206.44409
77127.30209
70805.29792
64107.49398
62197.61018
59298.72692
67039.12158
65460.15209
62659.44368
45364.2487
57581.67371
61888.26662
46137.49387
52757.93762
52558.15038
48487.28213
51566.63507
45909.12747
60127.14376
60434.0665
54835.63209
53319.5739
46553.72715
55922.17527
67170.35226
66034.1632
66102.27016
102765.6059
229726.3099
903523.8824
479088.3519
252257.2048
172776.3861
169242.2171
138563.0223
168074.3197
166001.5887
81955.98569
73025.98127
102135.6753
87575.32025
77641.40154
82841.41052
65894.65049
67530.356
57859.58599
93138.96782
55644.8378
59641.84616
60809.08301
54461.51384
43981.10638
51884.5966
52257.99094
48158.72042
49734.3439
61376.79314
59549.09872
61207.57945
69409.26179
64176.87307
54310.53759
68272.82025
83449.9383
60856.8072
61456.93249
58227.90641
67712.72672
68221.89768
76753.11112
144615.7831
1550676.481
293965.0817
242999.0674
149036.3308
177952.0282
154214.6213
113606.5241
91845.78817
89182.99277
104066.6306
68437.52945
89311.08365
48308.20725
72358.12496
64704.57381
45962.08891
51730.35706
55960.91587
50846.20865
43034.94719
51338.07666
55485.27993
56539.23657
53039.43807
57901.54431
49557.45589
52626.49205
49741.42861
60625.60845
56557.06928
61593.35949
57975.6777
65776.42718
67863.72365
59509.93073
71200.58727
57954.94407
74940.38355
90989.71651
68530.0966
82478.62581
223388.1231
2145976.304
262607.5768
300686.9603
211393.3703
173889.917
146039.6668
165820.464
159024.1087
130011.4681
111289.0585
92597.66051
77491.0641
73470.76999
52979.69036
62850.09325
63464.37628
52747.39804
68619.13732
60515.17158
58353.36223
59758.70146
48706.20732
46182.10489
61376.13289
55852.34958
53077.63875
58730.58973
67166.95449
60139.40152
52964.58396
56479.08507
52738.48637
48538.12045
65089.32543
51175.82819
61914.50074
56384.75542
77912.07753
64837.06061
74131.8594
108142.1147
550928.9042
1269783.918
402768.2707
1031638.04
217780.8316
203425.0792
206937.1874
140256.0396
162536.8766
118290.0897
104655.3972
133155.7147
114798.876
77476.55746
96641.42972
69750.70639
69042.59811
60190.41116
64931.72146
86700.76201
77363.86393
66169.48782
52834.31858
60967.16527
44480.92208
65534.32193
57651.24415
58248.36408
71561.26196
56886.41196
49721.88768
39816.20536
42575.0887
51880.40987
44762.03071
56315.92317
45265.75937
46188.6159
53158.70433
62570.1148
71228.91862
89493.49477
216995.6028
299898.5797
449883.9404
254773.2938
207824.5092
283121.4599
220381.0927
183334.3549
121960.6782
102353.6258
85915.25822
91058.49973
78532.60613
79857.94808
75399.54821
83739.21168
68705.83016
55705.95708
60974.89224
87106.9147
85247.11002
75890.59973
64044.92636
74655.61866
49014.9969
55600.50574
53805.53615
71457.84356
73778.51523
84120.0175
69689.97185
53617.06353
50595.18273
53451.00014
63598.18883
66370.07611
58446.86641
47139.5811
55490.05286
54309.45284
64718.04227
87308.42285
234894.1401
661914.7218
434073.3628
376759.5622
491679.6945
317287.9178
182591.1648
181106.2561
134079.1706
101679.7003
88978.1448
90714.04557
76154.46663
81821.12666
66848.91042
60810.35464
67154.10215
62112.8627
76095.36084
56875.01478
85733.31982
70277.3813
68050.19184
64077.93666
59773.96724
52973.18038
59651.16823
61243.09116
59976.81593
66372.07426
58680.11853
52720.34505
55429.752
50616.14155
56634.2946
58636.50155
69497.46112
58551.36948
73657.37387
75808.01662
67107.74158
88822.76001
246145.5124
763993.6354
447667.8791
859514.3762
278073.4893
176753.4343
124908.0863
144626.4072
138234.9829
122024.7883
162301.6207
115198.447
76577.62008
65100.41643
60985.31837
61025.90536
62627.02597
67345.47712
84650.92957
70859.45362
80166.67701
96693.53869
59240.38487
63040.34536
64951.49299
59464.96314
48481.93141
45640.18325
52393.18906
52963.26539
51431.24552
66818.98595
50916.82562
55912.01741
48766.34832
55010.98699
84220.05308
66375.91477
58330.24228
59092.54351
73368.15643
55953.34543
506529.0732
822703.5997
237167.9503
181631.9076
263526.2041
193188.413
236026.8334
192825.1263
170697.0982
165462.1508
109203.4577
92649.26707
92642.46139
70426.24476
72762.28908
75727.18641
55505.19891
56204.82982
63358.41815
53005.75699
55812.37613
76763.86609
71886.27888
69047.23765
54931.10218
65862.51862
53917.03401
56104.96296
47269.08884
57493.7765
48575.88613
50632.22173
52826.2696
50422.16747
55679.1433
55776.08229
60094.3712
59595.04893
70000.14413
70780.44555
90587.69624
67014.97281
297419.9828
438545.0558
434975.2637
177018.5773
169688.5781
125619.2093
159762.1064
170441.9122
149169.6804
167100.8811
109672.5547
89222.80962
121203.9013
71480.45827
73093.06036
70524.23368
62355.64771
62376.56336
67536.97653
62074.4276
51302.7409
63734.75844
64813.99389
77390.50015
61243.44265
69456.07677
49555.63559
48119.33366
45351.76162
48016.25311
54045.29015
51505.43688
54984.70497
46327.24029
45938.51743
52033.42598
47476.72454
60855.83672
50960.69109
59577.46382
69769.46056
82132.60127
219951.5793
415216.6675
175029.2193
178956.9257
340323.7726
279841.7298
151936.6937
143312.8158
112815.5223
118011.8957
109688.4772
89253.14211
76856.21757
80498.0816
74200.9879
83014.15087
72685.39905
54919.07819
69269.26856
56166.2254
59765.71017
73417.30235
69388.28473
54638.94785
52188.89384
57430.01684
49916.98621
58256.22827
48159.43124
48785.40505
60591.0013
57001.93081
54747.34331
69986.30917
69615.96491
49758.55929
57602.39568
57973.05784
54940.60702
52865.52301
57051.23531
60017.95443
326750.4482
369021.5227
231273.519
198618.2653
324114.9122
199761.5175
154963.0376
114370.036
106270.5016
175008.7525
110909.7389
98819.05162
75061.14433
81453.99314
68538.54445
92340.81709
67557.93436
69181.24876
50737.84626
68251.58306
59650.38562
61937.24988
62248.62794
40413.50745
51567.94943
51077.14824
59347.11603
62643.67399
74737.776
79103.1056
68418.39675
73737.7248
79526.64233
62789.26245
68974.69397
62503.49941
57424.31979
52690.61655
55944.85394
55642.28559
76403.89839
80014.91087
363978.0984
421958.1441
423238.2423
884448.2594
646586.3651
215844.4174
119277.9768
158616.9702
98614.68482
107198.4635
141378.3987
116410.8021
120713.3188
73961.2091
81169.16037
83010.52137
67738.15507
101831.5231
67068.5226
74322.94346
53439.56334
65556.83344
60038.92974
72344.80032
54670.17053
69101.2414
58860.72663
67667.31208
58209.75136
68719.87051
54183.86521
59879.15723
63391.66111
62839.15932
61303.70926
57807.8368
64080.553
59991.75269
46344.82388
59050.88914
54400.39811
78962.42048
243253.5806
296542.4976
721469.0052
812471.0972
624085.5126
186198.8251
158487.2794
131291.8432
146726.9924
147447.3658
108538.1797
117529.0619
129773.9137
156409.9148
82111.47929
69770.10626
78684.00706
77373.60163
76488.3701
59626.26487
46366.89015
53878.08591
53299.61728
50892.86153
50043.4419
56576.18142
67012.47113
59866.92603
53753.37117
61534.51398
54145.67046
48844.44739
58562.79622
54964.52676
69863.42161
57955.07472
55522.06686
54699.42822
66078.13276
55578.69429
70878.82225
74469.88607
343019.8382
375668.5182
309003.9937
506331.4161
222621.0967
242365.3444
482834.5376
243472.2641
95945.56228
81341.60233
97636.42353
89471.64859
89966.96865
91133.78638
58195.73013
79676.33621
65114.29859
56533.60814
72643.54313
56500.60347
49918.92808
48105.05248
45148.73776
42987.57443
52218.52271
51880.98936
67658.07328
69947.77563
62976.811
61001.21949
54715.35129
51368.04044
53821.76029
49672.19297
64028.60726
60452.11337
62062.54107
54493.91769
55290.41071
52964.6408
58983.94105
79341.94678
549008.5715
1028758.554
381522.4307
319147.7156
288673.8211
243863.0112
132182.7995
124822.704
92648.37169
113730.7757
90730.89799
102160.0492
109389.0212
81880.0901
66396.39276
74319.97637
68009.95704
56729.4348
81886.50909
63457.73823
59788.56079
62995.98218
54039.2552
59339.03151
66364.06686
54642.52236
51898.3323
59044.42934
52181.59523
67614.77981
67951.35833
63982.38541
54457.86346
63014.44308
52469.57523
60794.37093
67366.35712
51776.42113
61631.95167
57355.94833
64366.99924
79209.45278
530010.7514
2047490.968
312016.4359
228545.7841
130298.1488
164535.1178
137950.9527
107391.2174
132295.0896
88678.10161
88552.18176
129820.69
105220.978
96157.50058
84050.22405
84684.66583
91017.57608
66680.25255
82562.60631
88496.48397
88567.71976
60962.82295
74873.63157
54394.02096
60245.87528
65786.1722
61023.45736
61382.73005
71212.335
59675.60382
78598.9086
64469.59511
60446.32137
56154.40436
65165.39447
59686.01459
56849.91291
51111.23408
50099.18949
70589.41983
74623.46852
65607.69614
307406.9584
2062907.631
516807.7093
339123.4566
348202.1879
388482.0371
153675.0016
119444.1132
108312.3607
87704.16792
77126.1327
76681.25005
80976.99647
70777.41941
87536.36541
82138.52493
102525.6391
62608.151
61858.96855
58847.14259
69524.63157
58358.5871
61104.20596
60167.63398
63125.14417
63581.641
57717.75065
72173.97672
50696.96685
62830.61164
62274.16776
64671.49837
74518.06095
62127.19939
56771.03226
57997.24968
53989.2026
53264.45828
49667.31568
48834.98561
52678.57049
66598.91467
284610.1518
1971418.886
1152426.871
801428.2553
365695.1672
219025.3711
138740.8669
128942.275
122220.0878
84227.33797
80613.72544
70746.72154
66088.22514
79673.12412
82258.99921
76549.30872
80582.90434
62517.84051
60011.01078
73197.01891
84792.90897
69012.02525
64534.34929
59228.64517
57725.88826
60266.11011
58297.14537
59907.29869
58880.08275
46604.64436
64091.99597
55617.38981
60465.72538
63861.50441
47449.37247
45206.8041
59084.0001
55503.14316
59040.35102
51145.20355
57732.7073
77398.65174
224948.3553
1599369.871
1050175.35
226147.7571
214922.1499
197084.3259
194209.4861
133459.0545
113346.0841
119179.6367
95927.77002
111934.132
126640.8481
84136.4274
102943.628
68160.49474
75947.31059
90740.7011
74508.89984
71470.1051
87020.79316
69656.1957
60972.41214
55511.65759
68040.09797
64027.91887
57396.79318
62537.65007
67038.85584
49482.77295
63025.84369
52165.98119
53890.6761
53795.16113
57375.50636
44440.1579
59010.59244
61714.98851
63646.0913
53683.16067
63656.15715
68292.16297
341179.5039
571960.0675
368170.388
210441.3276
156948.4154
149804.08
131520.7318
131085.7099
113947.8306
108562.1988
102090.7713
83907.6156
115839.5466
100803.1974
96043.21674
63858.9566
89515.61617
76998.36024
62721.23703
71795.70279
48571.53959
59838.59613
75390.5361
67654.76422
55072.25532
65528.90193
57477.24996
66472.91542
89614.74942
64940.64171
50999.41251
49468.00938
51308.35283
50582.47025
58391.9949
60848.12944
74695.3701
76743.85479
66913.95559
65205.30407
69454.46067
63227.08622
216764.7388
283379.2209
236784.0322
161976.5304
169605.1945
166561.5207
101462.7422
148571.9128
125871.7785
143735.2486
109904.4092
72216.0413
87333.83716
90496.04626
75409.39187
63053.67927
78961.51032
74702.97941
59066.02881
58162.45877
65644.34475
91174.2905
95121.08641
71570.91393
63496.90601
61131.92034
64765.1093
76992.2939
85792.48381
78921.03224
60803.36709
58548.82989
47811.47791
57406.92375
60100.73311
59924.80336
77330.76444
73289.6909
76542.48883
73315.73367
91826.11309
74289.63639
263421.8783
790820.2212
339368.228
291353.6164
227235.5651
129221.2996
156480.2216
199636.7765
197222.6143
157866.1111
114656.3116
112002.6564
85158.11362
116450.6429
79302.58689
74125.8773
104294.3506
64810.78618
66438.65257
52557.86285
78974.23593
87397.60653
81350.00732
69077.97672
63851.12885
63172.24
48098.19907
54861.21347
77019.5594
72427.15673
65392.26279
56024.68626
66859.2807
66263.09174
64950.46693
53919.24224
60412.72843
71533.25394
103348.187
67256.20496
101534.0706
98137.90713
542435.6811
447490.1323
205295.6627
152422.4033
132439.8921
118324.8237
135619.2348
105132.8089
150122.7875
86093.15221
93192.36207
84921.1102
81666.30151
76755.34909
81767.60214
87232.55635
101637.0465
77603.31649
91631.13412
70478.33079
66923.65229
100391.4276
67703.87279
62725.04074
65941.82652
54387.3151
61620.02665
65061.17223
71768.42853
66406.69671
69582.69601
60542.76411
61704.63055
58953.33889
63229.04285
56148.16614
57371.00167
50812.82198
64552.17139
69937.76578
69385.94275
62990.6604
124534.1178
106181.1636
109566.6517
77521.34567
65639.09147
70822.87621
62294.52668
63082.70789
47847.57495
52285.63707
52563.01944
39262.40163
43007.23573
42427.4527
44411.65317
45113.75572
45356.99778
43205.79117
47658.96001
50861.54411
34338.11635
37535.32981
42400.59719
42814.43362
45271.7885
40533.9676
33086.13355
29795.48994
37205.88424
55907.31469
44592.26404
43163.51581
43024.21544
45650.21744
47128.91475
40738.00042
45007.61364
33894.81045
33573.655
33796.18796
28658.92818
51614.67571
101488.5731
77114.73583
73408.77542
67232.68008
67075.76474
44853.96568
47552.61666
32409.05
40517.81633
35796.27599
41160.86439
32371.76289
28588.28575
37084.54833
37922.50252
34379.88493
32601.42885
30538.55429
37181.28531
29057.10656
28921.61314
29736.39788
29328.8469
34036.91221
34054.74197
28063.73965
27498.45912
27468.23665
27573.99928
33091.50971
39665.14342
39981.71513
38887.66124
29767.90944
31673.74187
25388.69687
31515.53622
31245.91261
28876.40041
32268.84214
32245.7717
48515.39162
153525.5806
65381.53644
60766.4202
67052.54235
58753.65801
36576.33178
30688.15077
32942.62243
28893.05819
30011.78262
35852.83507
28160.72877
20605.92288
25799.26888
34226.03577
30961.80033
21619.86548
24332.86068
24448.44228
23376.07302
23612.29904
23972.37003
24199.2486
23950.37267
27128.40405
25991.1611
28330.91318
24710.90914
28781.45473
30846.36296
29800.18123
31091.8089
28148.55169
27532.64816
28281.23626
31061.44712
27290.88179
32131.31163
27632.41968
25314.47546
32562.05993
39984.15755
145415.3594
76330.92248
66585.09324
44276.77041
49991.13267
41140.51254
32713.26164
37525.47645
28932.27307
32463.87018
26739.52348
25936.49502
21540.53163
19117.50637
24365.131
21129.68995
18565.87944
19125.29126
23813.05822
22712.91767
22465.53566
23181.01289
25358.96198
23606.58512
26650.61253
26001.21509
30385.69218
29517.46365
25220.7232
27355.19775
33077.41893
31662.87927
31680.69841
36072.00188
34439.82966
33421.87931
37764.65127
32459.77044
31303.41033
28884.02628
36342.62348
52716.81748
124683.3289
65911.59698
70718.92957
58624.43814
44652.16431
38546.00001
32141.61087
29836.16187
33191.9636
32909.98797
29595.84305
24859.23047
19992.19934
17646.86925
18726.24875
15712.77821
16357.35113
16838.60037
18925.21802
18695.59838
23236.17709
21346.1492
22643.84183
19874.95033
29156.74001
36038.1829
33351.51357
31240.08932
31254.16093
30088.82207
36345.97413
36620.57442
36660.98346
40104.00252
39044.50985
31148.13906
30896.14144
31613.48845
36723.37302
31939.90976
35296.77475
44400.11496
132690.6696
75338.99256
61657.80836
46416.28097
39525.40234
45833.47759
32131.20472
29596.09498
28482.88877
24493.4786
23667.94685
20728.13168
20217.96701
15560.51975
14672.56262
14252.38947
11779.39561
14360.78524
20077.51646
20492.67745
23066.51684
25626.21473
25054.83592
20674.79947
25083.94429
35688.72828
42883.33498
39664.32496
34760.23962
45732.6433
50460.8504
41033.80929
37429.43283
39118.48692
46251.96144
44412.51432
31530.31025
29994.68031
33832.68623
40705.94166
42293.06977
50195.52795
125334.9984
54295.86812
42216.14599
38064.25403
33277.17371
32941.56207
27203.83322
28006.39453
24550.2748
24521.73257
20674.39929
15386.5624
13894.37073
12685.71796
10254.7011
10823.32777
5936.503739
260367.5043
75896.77071
72600.96766
65298.83666
50312.38266
48558.68051
70062.7875
51328.69226
50427.03897
49506.3522
46975.32855
50428.37892
52181.02373
48205.36193
44427.46861
44284.77859
61292.65957
107339.6834
58360.20757
39908.41284
30896.86888
29393.5676
28462.831
26588.1031
21567.55629
20901.84171
16852.11736
15743.39779
13050.57513
10463.06996
9585.132154
5854.689205
149306.0867
99066.75584
80753.48867
84397.34928
84179.78144
94871.5079
65017.52753
58615.48731
55781.55252
65971.09988
54529.09555
46281.12659
47809.18949
47768.25427
61232.24443
106715.7631
61674.93064
46450.41307
35903.64593
29179.16149
29206.62188
20905.07499
15517.48034
19384.10065
14326.45109
9780.216772
11504.24975
6266.202924
72.3492845
74.62644687
75.499778
75.48068225
76.0047697
75.87915224
74.87038483
73.00550331
155997.5112
81470.12908
124477.3319
100224.8534
113716.9876
118520.9268
107105.9978
60989.43788
83730.93061
68777.31599
70799.37779
75903.04744
72470.37767
97008.46695
59528.68445
43677.66778
35628.55273
28919.33668
23302.27276
20927.01867
16812.83489
15380.46905
10872.15849
7206.684016
73.61085012
77.55624024
81.81455303
83.43493249
84.79864795
85.03681982
85.47144766
84.88751448
83.13459132
80.56070204
76.38543499
73.22135608
291902.4647
177339.7817
194529.182
230274.1674
126455.2552
138260.0854
93387.83683
71095.20908
85036.44303
79167.59262
83824.60741
71145.95368
43140.9397
33615.74805
31287.93563
29369.60002
21974.39162
20555.26692
16956.58647
11232.56337
7060.006587
72.59903194
77.47969991
81.85670731
85.83380988
89.95903129
92.04377864
94.06622218
94.34329848
93.98245186
92.41699833
91.29240444
89.37379433
85.22677545
81.57520817
76.4211049
72.0804117
457922.9708
200609.5558
201352.8454
219252.7355
118805.3295
126233.655
133537.9522
60210.01473
81559.27054
71141.62926
98725.65234
49808.81202
37702.51746
27868.42497
26537.58385
25635.42348
17106.04422
12425.19928
7196.042274
73.72326483
80.09179578
86.20029399
90.10954166
93.41166873
97.88121608
99.65699346
100.7724331
99.42522452
99.66277072
99.45403825
98.6012255
96.25655089
93.3009422
88.21982852
84.45696337
78.77292702
72.96960116
752436.365
210840.1716
189935.2685
384751.6145
185823.3745
120999.4146
100628.9314
72640.1805
82945.22933
88531.38511
44016.16791
35332.31907
25608.64393
24045.4562
17473.67743
13365.8931
10524.13091
6490.195642
73.64584958
80.78154026
86.45667442
93.46123302
97.31502246
100.6836637
100.4168317
101.4658197
100.6249673
100.0209116
100.1599512
100.1113569
100.7809405
100.7817238
100.3108599
96.59458747
91.61386327
85.12421585
78.87026417
71.20477777
952280.8536
355922.1738
408243.3062
200947.6247
122741.7264
113571.4355
89946.02299
87229.10763
117166.1022
75036.31987
47716.65764
28407.14997
29454.56655
20886.23841
15772.48544
12116.87686
7812.102573
73.09246617
79.34046962
87.31938379
93.23337472
98.18241345
101.7555138
101.3120877
98.52519496
96.90492426
93.11311386
90.20799914
90.245486
91.67554227
94.72169483
99.53669348
100.3251547
100.4492299
96.76727351
91.01657209
84.64597636
77.26597044
71.19365779
4987174.704
631469.829
158184.107
151558.998
103975.6288
97453.13863
152938.5933
125226.2381
59408.75551
40965.54369
32923.13457
25431.38918
21123.88556
16145.42443
11930.88232
6370.664117
77.57805699
85.28028523
92.16096702
98.57101079
101.6028638
100.0440646
94.49437487
86.92368578
79.06296546
73.06115561
69.8408544
69.42330517
72.82796837
78.31045715
87.17083327
94.49775052
99.19316415
99.55109183
97.11836125
90.79881058
84.01367177
75.55842287
425875.2862
423359.2859
187354.5835
296017.6027
270567.1958
213076.7339
114541.6425
190410.2647
103343.619
36489.34717
33783.84399
27654.0394
21767.81134
15680.83235
9684.890477
73.38653164
81.62732509
90.42228665
97.56451768
100.6677091
99.52251882
93.43079995
82.37186786
68.9762311
57.97410383
50.70582609
46.70855235
46.55232979
50.48881482
58.43104144
69.3050778
81.58646639
92.66683659
99.73879481
100.7051014
95.15196847
88.09295306
79.8690503
70.91098702
850636.6134
637520.935
236586.7669
342585.8996
126955.5527
138611.1868
239923.8354
97010.28261
39184.76412
32953.54277
28181.82592
19936.05994
12972.6364
7992.962247
76.68351754
86.22960713
95.0720736
101.6154938
102.5838009
95.43070939
82.2641277
65.9859193
50.19010302
38.88031819
32.13988966
28.99346976
28.99028948
32.10785646
39.10277708
50.22383746
65.178122
81.6186692
94.9330193
100.2912968
98.33985063
92.12293756
84.27934921
74.30769621
5613260.126
296197.9044
243987.7328
221253.0782
126032.0595
183269.9768
163681.3064
54302.36501
42339.02249
27151.26846
24057.14591
21266.42698
11558.80924
73.778989
81.24528539
90.06381368
97.52578453
103.1602497
99.01828423
87.31425333
69.65644255
50.11279913
35.2626789
25.69042277
20.21352667
17.91118363
17.95166498
20.24957858
25.61147934
35.4025288
50.20848408
69.52558644
86.76468626
98.52593294
99.04852623
94.35037651
86.64363069
78.18385749
67.97607724
163377.2274
216392.4511
263484.3259
188236.1606
179103.416
191147.0553
63818.59142
39551.15337