/*--------------------------------*- C++ -*----------------------------------*\
| =========                 |                                                 |
| \\      /  F ield         | OpenFOAM: The Open Source CFD Toolbox           |
|  \\    /   O peration     | Version:  v1706                                 |
|   \\  /    A nd           | Web:      www.OpenFOAM.com                      |
|    \\/     M anipulation  |                                                 |
\*---------------------------------------------------------------------------*/
FoamFile
{
    version     2.0;
    format      ascii;
    class       volScalarField;
    location    "3.989";
    object      mfp_N2;
}
// * * * * * * * * * * * * * * * * * * * * * * * * * * * * * * * * * * * * * //

dimensions      [0 1 0 0 0 0 0];


internalField   nonuniform List<scalar> 
50792
(
12270.48295
11654.72709
5549.771637
4979.375732
4177.458864
2769.366774
2238.059609
2588.066683
2193.276462
2139.790447
1949.5585
1913.556926
1713.729872
1839.7606
1620.18461
1406.404935
1362.60495
1251.025584
1309.760606
1249.337261
1168.986538
1148.113818
1047.174174
1031.10779
1042.448226
852.5404009
952.3948837
999.8871282
999.6290582
998.9310845
950.8194401
914.5527914
813.1681455
928.2292958
932.8487441
1008.311672
1011.338065
1053.15254
984.9688968
989.0306694
957.096198
964.1480269
14629.60281
7319.700683
4697.233305
6557.622168
4237.441193
3971.257154
3998.427274
3564.846681
3104.148687
2731.554256
2421.098584
2116.426003
1948.460838
1769.688948
1562.454565
1648.187325
1608.369221
1588.069889
1566.688173
1541.086229
1507.197689
1388.297686
1354.982023
1317.024767
1209.670648
1258.835471
1287.769676
1259.410615
1202.249371
1260.983703
1246.272567
1330.584507
1337.037547
1388.970027
1364.7969
1223.724409
1296.072685
1159.245666
1236.581108
1228.050403
1262.537699
1134.646165
14338.13932
5433.297828
6343.130345
4536.815861
3748.51716
3085.34869
2644.898306
2209.41994
1997.426657
1942.31596
1804.951929
1630.954146
1683.867868
1777.357623
1771.426807
1548.97153
1548.549274
1464.085639
1332.119133
1319.452036
1414.030639
1400.263712
1268.638316
1320.324743
1353.69993
1285.059837
1391.436302
1334.904759
1319.925398
1219.771528
1289.058712
1269.312328
1258.646145
1160.800987
1184.123379
1186.630038
1153.700066
1168.032634
1121.615144
1182.914804
1261.797374
1173.259669
16755.24902
9751.174081
7797.815791
5274.344213
4214.958516
2954.250235
3262.696517
2811.278908
2578.452097
2254.023557
1859.314464
1878.327647
1509.268691
1794.34395
1694.613575
1398.432346
1581.124329
1495.155958
1672.340766
1242.299632
1233.434022
1282.918884
1389.811843
1134.524697
1021.845031
1209.218487
1381.351142
1463.2516
1219.425778
1132.500917
1483.316086
1382.29856
1391.449145
1320.581046
1224.17822
1314.351303
1216.023063
1096.195637
993.3059913
1091.978377
1065.468586
1008.274085
16337.68605
6761.885323
5296.976367
5943.966572
4259.018406
3579.236887
2937.724105
2772.029844
2241.608279
2101.453302
2082.816793
1549.097179
1916.847303
1715.91718
1559.679145
1521.390623
1482.748154
1449.147449
1292.509609
1290.916803
1263.969017
970.3717248
1067.04745
1206.610757
1017.025862
1228.18255
1303.282503
1318.935285
1323.664611
1247.618051
1236.124092
1497.974104
1441.782676
1452.113594
1382.728012
1181.693375
1240.942833
1211.53859
1119.002623
1241.975702
1289.718267
1343.996573
4177.298912
13309.93823
6099.903132
6172.940103
4784.82754
4142.936109
3890.186494
3288.279374
2750.080479
2495.895664
2094.412239
1866.298024
1958.208167
1756.553019
1741.342263
1655.467788
1552.888838
1327.7107
1270.322141
1227.77023
1155.920542
1093.461367
953.6630353
1030.891224
1219.112269
1202.156957
1134.69521
1086.089245
1084.888198
1368.025633
1173.386457
1454.988097
1296.50234
1334.196993
1342.075501
1263.246275
1398.060261
1247.485223
1316.457608
1208.976811
1240.242255
1170.830941
9608.370123
5815.90224
6595.039331
2644.639384
2198.363789
2333.787404
2676.252282
2440.664615
2642.366585
2311.129551
2237.163491
2115.593266
1865.266266
1860.390125
1798.634641
1645.50855
1533.670801
1620.254215
1484.245859
1297.330547
1276.446106
1045.750577
1068.572772
1180.375167
1047.100203
1066.002422
1265.753901
1237.908521
1306.130276
1178.319685
1067.641295
1060.175949
1180.537124
1204.054475
1147.975921
1229.060966
1249.426018
1093.277301
1127.643018
1058.720136
1145.37691
1005.562786
7304.630857
14096.92329
4422.577867
3754.601643
2411.053933
3984.543496
3464.44353
3264.580288
2695.402685
2429.344568
2303.588852
2025.669247
1674.948987
1719.630606
1583.11286
1455.720746
1253.124148
1348.182293
1435.150977
1422.719949
1515.880903
1393.437018
1347.434041
1386.532007
1254.768456
1235.448981
1121.252439
1126.713341
1152.747231
1134.931884
1075.86308
1170.324891
1109.190773
1138.148491
1138.260626
1139.214867
1078.861984
1001.501165
1086.991021
1189.748771
1170.888968
1128.275621
5313.009331
10604.64053
6289.046155
4694.208878
3407.436819
3051.101125
2864.350964
2464.377132
2231.139404
2108.171842
1963.880141
1840.240569
1698.120591
1700.137346
1660.221082
1513.182952
1504.187758
1621.00688
1540.370168
1430.568829
1519.328058
1354.455932
1643.815615
1643.828724
1350.891407
1162.435926
1383.496969
1314.718562
1424.962847
1325.755349
1399.562239
1321.024358
1220.393734
1277.430654
1163.261969
1223.442241
1018.867191
992.7369641
1128.65552
1011.571802
1126.893471
1053.350344
4245.003985
6678.47365
8082.630414
6019.265788
3319.998827
3320.96575
3005.814475
2546.878029
2204.358445
2083.046492
1948.920675
1752.62142
1850.484992
1749.233838
1714.089904
1582.993967
1670.887728
1459.67556
1223.301101
1280.433801
1116.472508
1340.83695
1199.184412
1295.170064
1235.23745
1227.503508
1201.175901
1150.867671
1148.038905
1150.379189
1179.070116
1145.08003
1234.484762
1206.626735
1224.081847
1153.932039
1055.111487
1062.415396
1182.222086
1050.240909
1130.35367
1197.676948
4721.811069
5101.141335
3222.301199
4528.865712
2949.017674
2576.79484
2271.926984
2395.032086
2171.773494
2052.538256
1896.295226
1919.730778
1985.739394
1660.015571
1776.511686
1626.878226
1608.860057
1539.10954
1460.117783
1416.658802
1458.234831
1192.988577
1258.764089
1367.547724
1360.161512
1314.636226
1297.312823
1211.692286
1252.516087
1207.791082
1211.602967
1249.93518
1105.895832
1152.571985
1155.699904
1148.03374
1020.086381
1040.69615
1027.149055
1069.470644
1059.73323
909.2157973
5841.494156
12359.46636
7498.083206
5157.904357
3994.354021
2776.497482
2044.464381
2380.876919
1998.635975
2158.196538
1988.206933
1603.680526
1678.93744
1790.778255
1583.894491
1590.798226
1500.072109
1453.092876
1243.883808
1253.607363
1361.110062
1310.665737
1348.777472
1363.229479
1397.792965
1354.207585
1302.025417
1439.073369
1206.859199
1407.344719
1189.9038
1306.006086
1293.04284
1604.734999
1670.116844
1565.353017
1552.84244
1408.994961
1350.866527
1316.984432
1296.777883
1209.306345
5817.630514
5778.917436
3611.817996
3936.027257
3795.205032
2966.490555
2576.097264
2490.250471
2200.474031
2062.066617
1726.007516
1582.741899
1662.222724
1648.759356
1621.503682
1551.384129
1587.769852
1556.622635
1449.145397
1248.955808
1438.643893
1289.629088
1294.706469
1335.162934
1265.145616
1348.557107
1348.687158
1147.598723
1023.439352
1133.268019
1333.47101
1316.99098
1230.004702
1217.168662
1234.805638
1188.222714
1234.677139
1385.263914
1367.932358
1340.138491
1334.86894
1266.344874
6085.307659
10214.10423
7248.981538
5817.467049
4083.085565
3637.84577
3996.841028
2599.474123
2796.63107
2292.024642
2344.121573
2046.000567
2228.665199
1728.18804
1756.895615
1612.061415
1601.028613
1555.687563
1618.473577
1624.079497
1586.726355
1398.98669
1333.007257
1110.712191
1105.608343
1198.391971
1107.449236
1046.078756
1132.542796
1465.732836
1389.236315
1240.61894
1318.815999
1299.889285
1272.639313
1073.08572
1181.559978
1387.696941
1285.375399
1246.811343
1196.480737
1234.105779
3322.579562
16264.08406
8564.890518
5788.634645
4892.022998
3877.361195
3083.348725
2835.709268
2382.080622
2125.171272
2224.178495
2071.905743
2082.344017
1956.096499
1639.103553
1604.307891
1566.34154
1499.461693
1389.603477
1403.759544
1534.218131
1474.16192
1370.748208
1284.718194
1327.923152
1271.298748
1446.177141
1327.285275
1180.785211
1006.747308
1078.735177
1220.337866
1348.372486
1345.953981
1202.537041
1260.25501
1200.439782
1179.384356
1248.038243
1456.567392
1282.947139
1289.970268
4514.181024
7522.400369
4749.819687
5459.068827
4173.022455
4101.503993
3696.463563
2777.016424
2642.21483
2293.578149
2148.50633
2172.109246
1997.662369
1786.353274
1846.45683
1607.00836
1266.593527
1406.694749
1446.398853
1288.967876
1287.371791
1272.547587
1461.880501
1422.49461
1278.642245
1244.826986
1072.807024
1052.589766
1226.269787
1158.152494
1258.577623
1371.069717
1304.545143
1529.799217
1142.178682
1450.510427
1283.879653
1434.632789
1511.121736
1308.496097
1312.816062
1254.582143
7810.828806
5493.82303
3901.97595
4917.933166
4622.535552
1929.635839
3179.584306
2683.903928
2790.290204
2396.307195
2213.386868
2196.319843
1764.628265
2012.341175
1845.896629
1864.173986
1838.021499
1619.734002
1242.711696
1464.797129
1635.246084
1550.409989
1502.786841
1385.859455
1387.526398
1519.511982
1211.432515
1352.360554
1216.445468
1261.122463
1278.462295
1266.797887
1151.325441
1056.974028
943.6387566
1031.910221
962.3805996
1018.161543
1045.070723
1010.186838
1133.404169
1093.530388
3205.719462
12180.91986
7007.687064
3821.315111
5710.33866
2663.260566
3447.33023
3182.649515
2485.169777
2212.208352
2194.419653
2231.191703
2086.918635
1919.070898
1762.524285
1625.239518
1624.117009
1551.248551
1247.982043
1189.881427
1401.085817
1413.190237
1502.08735
1255.062866
1553.55505
1345.621532
1592.149052
1732.645108
1679.670125
1509.734107
1302.305636
1278.666389
1321.770371
1233.072199
1163.381371
1062.38591
1034.375566
1193.350356
1094.969292
1186.016809
1192.028434
1040.498663
5786.204388
7328.265651
8076.886231
2879.339737
4490.792672
3637.412076
3022.508654
2427.615745
2311.882445
2183.934909
1881.38992
1934.309466
1894.376967
1751.965946
1469.829213
1486.161973
1535.256634
1514.739601
1488.146975
1385.496826
1402.531471
1383.963987
1363.39655
1114.589158
1283.680177
1223.070388
1047.520201
1114.732349
1151.28006
1104.501831
1195.605127
1072.440899
1232.174679
1233.389812
1170.321393
1177.543348
1089.653866
1189.641941
1284.894012
1221.809713
1178.056481
1075.171984
2700.849703
13183.04055
8606.777749
5392.244216
3941.856325
3727.933241
3068.424161
2791.717482
2376.171615
2075.232267
1775.381019
1955.365106
1758.170137
1627.034163
1628.958293
1440.216061
1428.301344
1352.687155
1465.120492
1356.982689
1313.333037
1253.308755
1271.362896
1064.625828
1170.172266
1137.713488
1061.248887
1216.034239
1386.022431
1298.020467
1368.832722
1433.894461
1360.656693
1184.906594
1336.344978
1442.448083
1353.338157
1336.512302
1257.252616
1289.714784
1327.327608
1321.639836
2043.434261
5317.598198
6467.702953
4620.578538
3479.077357
2568.648236
2530.528209
2305.174114
2033.431924
1937.056848
1762.669372
1470.111005
1589.665512
1057.115925
1466.473091
1378.17253
1027.392009
1217.13911
1275.280212
1228.69638
1008.793964
1229.561086
1380.664292
1271.443957
1267.97107
1227.218349
1121.921123
1209.67542
1206.897618
1445.898609
1401.661791
1397.287015
1306.193321
1375.016497
1438.538916
1314.958929
1393.329244
1324.779935
1465.924665
1600.986813
1579.356397
1507.109062
2911.160494
7002.655487
7923.986147
5641.595499
4375.125146
3875.061426
3128.849973
2747.685788
2416.050329
2187.890026
1994.49975
1733.461054
1579.51666
1485.536079
1154.94606
1322.036282
1311.439732
1213.50223
1308.540305
1241.863592
1133.307555
1150.179402
1027.957983
1153.166055
1263.082556
1277.407267
1190.012078
1308.67961
1351.794297
1208.141304
1209.822817
1367.587789
1365.014088
1225.872575
1513.996362
1265.163393
1397.410351
1259.579183
1622.818278
1430.973736
1487.071087
1484.963304
10387.26861
10396.02955
8159.615236
3104.869016
5077.424965
4341.18203
3939.879212
3148.657078
2637.788889
2368.618628
2392.113526
2357.36099
2085.032345
1750.710406
1883.31224
1540.730809
1547.685585
1446.266584
1418.202982
1424.294913
1311.604418
1310.710792
1223.737582
1297.199585
1016.716767
1241.961628
1193.979052
1165.093219
1157.453058
1124.873702
1087.092578
967.9448125
1061.230068
1194.78383
1095.320072
1169.776239
1038.076066
1022.863345
1137.017839
1179.137826
1251.262955
1154.620033
4444.19453
7390.473026
4110.722962
3023.346757
3852.766986
3315.901398
2790.013658
2713.369615
2468.545244
2128.939522
1787.208052
1975.187826
1724.255313
1787.479177
1744.666583
1644.476794
1411.320855
1390.107982
1351.289339
1563.279619
1520.117589
1386.255139
1322.150574
1369.690116
1133.573444
1330.034794
1282.908822
1522.018816
1497.696047
1411.076654
1405.776794
1301.4322
1206.472444
1327.901798
1313.155299
1292.569137
1189.749688
1052.976546
1225.148999
1202.124622
1226.173461
1256.071716
3099.72776
8768.631616
4774.883275
6099.720509
3617.461047
3731.545321
3300.223153
2429.313267
2262.055089
2027.795698
1849.591801
1660.492413
1634.902738
1609.082543
1457.247665
1333.475639
1469.779625
1305.974168
1448.095345
1232.555769
1452.860685
1451.247575
1430.977137
1334.574435
1288.384194
1198.565892
1334.666993
1364.170825
1396.868022
1326.182513
1346.105412
1159.669628
1112.398844
1178.648731
1223.275514
1226.909676
1288.139301
1233.150555
1372.986018
1328.773442
1311.456081
1293.22526
4121.227448
9192.795118
7914.081901
2918.97879
4439.569859
3553.628218
3094.187785
2882.000682
2612.816675
2183.409912
2051.732204
1964.79736
1740.950594
1578.903122
1434.049869
1426.852103
1642.793013
1535.043264
1649.830444
1535.290051
1714.667954
1612.937659
1395.810148
1357.271695
1359.875575
1252.353989
1069.140575
1053.052491
1086.86135
1092.930954
1117.87911
1275.034606
1071.530434
1149.411871
1128.184344
1184.575205
1310.320608
1259.50205
1147.255771
1202.871874
1199.894049
1088.748606
17104.75504
17085.03814
5509.094267
4387.592095
5042.037655
3702.057818
2737.548375
2574.833249
2359.575356
2045.166463
2041.745815
1849.856601
1757.076627
1540.942858
1551.041185
1513.03022
1199.428143
1190.420831
1302.588707
1174.534382
1213.747846
1462.10867
1357.100266
1315.047863
1158.933431
1313.517572
1135.607755
1114.752109
1016.049865
1187.959324
1107.955918
1139.537917
1217.086791
1167.539122
1229.302792
1300.779846
1276.612412
1415.952237
1328.128815
1274.053366
1241.450828
1232.097157
5399.042239
10133.32246
8153.161885
4102.635201
4001.523885
2919.469062
3148.653643
3019.518506
2573.098093
2047.541247
1970.050941
1935.208801
1577.264584
1590.866956
1612.591535
1559.97247
1440.992151
1436.214279
1408.364936
1379.703928
1177.51312
1407.571222
1404.847562
1364.206068
1309.146394
1229.138406
1203.870999
1144.413771
1093.488528
1100.055684
1055.552948
1032.700744
1038.087836
1072.156181
986.5134804
1134.990204
1047.260411
1117.783697
1100.410639
1173.126394
1214.418145
1160.921901
5327.269592
9985.484552
4021.769701
4063.056748
3937.923862
3711.91506
3107.926698
2860.900004
2445.786058
2196.002002
2021.052558
1812.728043
1769.288676
1754.592168
1629.244867
1697.95791
1558.259848
1209.489133
1502.606331
1292.199796
1263.809304
1379.520295
1333.175391
1232.986936
1180.695663
1295.272318
1165.46758
1297.339727
1070.548031
1000.142174
1216.338455
1253.931831
1111.619278
1193.086902
1171.615973
1041.452004
1167.232351
1155.339605
1122.938746
1127.235691
1099.413636
1139.516299
9231.776924
12928.96585
6892.525681
4557.318844
3347.556102
3618.258859
2505.845866
2437.934628
2216.288029
1562.64821
1970.363942
1769.503978
1519.457287
1364.114929
1360.680047
1330.61411
1349.306274
1276.082757
1156.957288
1370.072495
1271.1663
1314.110494
1268.906014
930.2235957
1193.292543
1258.033159
1255.125414
1246.190488
1428.833893
1508.189877
1416.277691
1560.461435
1733.293003
1445.820489
1548.060233
1325.600537
1292.708842
1177.561993
1289.003509
1366.643454
1517.589053
1404.074954
12929.86233
12571.98848
8099.561653
3266.609205
2424.415794
3360.044686
2852.998167
2401.781254
2495.380307
2237.979031
2262.126953
2075.91126
1847.40071
1618.848504
1640.6402
1733.64215
1505.001915
1712.895951
1469.828543
1562.869832
1179.29621
1452.55055
1327.976636
1558.104588
1453.105959
1608.645602
1531.605112
1490.761189
1296.586888
1462.352866
1396.180534
1264.723307
1316.720614
1485.89086
1506.583788
1315.638557
1370.323273
1313.858904
1178.745549
1295.0724
1145.591744
1144.821862
6873.127197
10045.84337
4364.69231
3232.695807
2373.114179
3338.101769
2746.977625
2573.753166
2427.179913
2121.102312
2018.300206
1678.16614
1720.480553
1557.01986
1619.15043
1504.839126
1344.476273
1354.107688
1349.540972
1199.738304
1035.586471
1164.33534
1243.727606
1250.954462
1118.957091
1292.098493
1286.763711
1240.055489
1141.812285
1145.938365
1128.997913
1066.55044
1232.534465
1254.495919
1327.688026
1233.955134
1154.425177
1196.674113
1380.6748
1272.73114
1341.948298
1256.455032
8175.583108
8761.892244
3402.341995
4060.354557
4423.105326
1975.200034
1462.112936
1979.012858
1945.742518
1920.240429
1787.962074
1543.936252
1503.850005
1402.257558
1236.641547
1393.47328
1291.08744
1208.017124
1379.253253
1227.270077
1125.400735
1103.301232
1127.312986
972.1640228
1122.597518
1084.111714
1372.969665
1403.122068
1311.393388
1280.203474
1157.243058
1172.963216
1187.718929
1075.062661
1290.051626
1333.089376
1409.840557
1352.656536
1263.823957
1168.863015
1247.937874
1314.615369
26894.48163
10899.40727
4481.010755
5883.696117
4593.752515
3627.51207
2650.810513
2477.68436
2166.856006
1938.505609
1740.555193
1702.044094
1623.85654
1607.241429
1431.563524
1399.47913
1354.537031
1309.29066
1351.878459
1344.690135
1254.074001
1314.43879
1235.345471
1351.728754
1409.854916
1249.34733
1161.751852
1306.977532
1294.825033
1441.298504
1404.92286
1337.087343
1254.662995
1368.462905
1231.214583
1329.096589
1378.747945
1359.578575
1335.555293
1284.427489
1283.114529
1194.245099
10131.11256
6151.642112
3581.536024
4781.119949
3037.574337
3436.808507
2921.285801
2620.700587
2701.871721
2222.25781
2038.125713
2366.49217
2208.577726
2072.546952
1801.519748
1799.922838
1800.035364
1536.133395
1708.906933
1679.848524
1505.955258
1258.357722
1410.6771
1147.039331
1233.316762
1385.355522
1342.395447
1317.671812
1406.480887
1362.331223
1438.580346
1318.928449
1275.088895
1194.403222
1255.724835
1173.555213
1189.752836
1208.704018
1116.186888
1334.659327
1279.936707
1253.890252
5530.922751
5906.680636
3561.892171
4217.9203
3412.782542
2255.422485
2938.109231
2379.354075
2128.178926
2118.46504
1898.284626
1847.296398
1631.6052
1523.597064
1831.914426
1748.323322
1547.501589
1401.527691
1303.866821
1289.707532
1456.673371
1323.062033
1257.260598
1192.960028
1291.497743
1281.449823
1241.336407
1340.272446
1131.373285
1528.691133
1417.450271
1424.08786
1468.92459
1352.512098
1260.604062
1226.350072
1151.691116
1161.396884
1162.535419
1092.155482
1150.266701
1134.132231
4810.634746
5356.394588
3412.818101
2550.771901
3853.378909
3945.908032
2942.773167
2507.64165
2458.525874
1879.848683
1946.600777
1866.085244
1575.440595
1696.801127
1525.244697
1475.345287
1539.616651
1354.679183
1327.711598
1328.70273
1330.577484
1297.91256
1284.660407
1283.309449
1267.953962
1212.909746
1242.426882
1271.856133
1271.464628
1102.570415
1286.834839
1213.84227
1229.323428
1259.950923
1136.186277
1132.905736
1266.836974
1245.124944
1288.19391
1171.167948
1221.688629
1309.188954
6266.412866
5237.198341
3432.143166
4672.263218
4169.201881
3554.418182
3146.979054
2754.138942
2480.208584
2511.846684
2144.2126
2025.009402
2031.413534
1765.982753
1784.875783
1416.119759
1602.266543
1687.768265
1653.246152
1575.114904
1688.024187
1618.631783
1429.486942
1395.845497
1498.086289
1446.332744
1449.247795
1380.522853
1419.884381
1188.242567
1316.65969
1219.357204
1203.644108
1295.063522
1324.970272
1088.450487
1225.276872
1231.828365
1311.003587
1127.309181
1225.812957
1237.330279
4435.798179
11542.64983
7308.451298
4538.026857
3516.522526
3180.836059
2695.307836
2410.570726
2094.418841
1822.868161
1799.067397
1692.51788
1778.623694
1686.809288
1662.803867
1432.141671
1610.474996
1553.813606
1421.733406
1529.346905
1140.645699
1302.608001
1527.855042
1551.487243
1280.335656
1371.120299
1399.108847
1415.632232
1409.444499
1387.240389
1218.071434
1259.593927
1291.442658
1214.981548
1361.109506
1487.47261
1502.115489
1462.335059
1380.074155
1324.970597
1255.189624
1180.834118
2439.590751
6073.913653
5664.404682
3910.485141
4053.901685
3832.963281
2795.828376
3064.148565
2655.350143
2442.609973
2118.134676
1604.98439
1760.112076
1722.084013
1644.736506
1395.667792
1593.247604
1546.235941
1387.557441
1276.876727
1489.206606
1582.834121
1506.939276
1439.63561
1505.928048
1325.940892
1373.398042
1537.806088
1454.114294
1405.93794
1313.706741
1320.677052
1122.988625
1302.289794
1371.789237
1419.974636
1549.035237
1577.948794
1503.931383
1473.87833
1408.675792
1256.664113
3719.678142
13002.26625
7752.419522
5405.891066
4336.492887
3065.182783
3143.557448
3035.018045
2355.046489
2356.305709
2097.038991
1995.265979
1803.789133
1778.130921
1650.847911
1450.337759
1356.911604
1326.683475
1302.518322
1071.412464
1343.261054
1315.958427
1318.581939
1270.551671
1226.122407
1218.760116
1056.57259
1139.137485
1198.568651
1202.222623
1179.578538
1104.918586
1194.62608
1163.314355
1214.916393
1173.790224
1328.320647
1434.326172
1266.440972
1325.925441
1087.577898
1097.276599
10460.44611
10830.00673
4452.108376
3524.11069
3285.70931
2593.064397
2909.676584
2307.40392
2219.152935
1840.353103
2124.795717
1794.640081
1693.459352
1540.930244
1506.547117
1450.61646
1234.134945
1199.84397
1081.244387
1120.098304
1061.683947
927.4357317
1024.555228
1122.841362
906.6435963
973.5448309
961.5126325
972.8658926
1003.612406
992.6328907
1006.386054
1015.841359
975.5372839
1010.120902
970.6413712
900.5922466
834.9250965
767.1316003
828.0335937
797.4130933
846.1349184
894.4584777
1622.416499
2510.451369
2435.192665
1852.236157
1741.622009
1699.714219
1397.829054
1605.523422
1259.24141
1610.972476
1338.106694
967.1722211
1243.618194
968.375465
1071.717572
1053.300856
1091.404664
987.4026006
1052.384917
1107.724883
793.9719963
796.8898469
914.6007553
933.3212488
922.4039998
892.791477
811.8378152
684.3808637
780.9750176
831.6481879
831.6564456
770.1461924
745.1397166
788.9135151
785.547082
764.5716507
735.5721353
679.4413952
654.9888154
675.1332082
606.8855511
668.573278
1242.199432
1365.290979
1933.510809
1479.210897
1915.023743
1113.190426
1168.278895
690.0360494
1076.169871
1097.527969
995.2730853
741.7790757
668.5409721
852.2783102
868.0317043
837.4858371
817.0894363
689.1108265
928.5597877
717.0725611
665.0118276
712.5422643
658.6114421
802.4475342
786.203493
703.7314856
649.7896008
694.905226
618.8339314
744.6628
862.6988624
819.6757555
820.2367214
691.0078754
682.9384026
577.8793936
676.2860142
658.253729
629.6589202
743.881714
688.9815284
725.4225724
2039.298325
909.0871232
1139.846206
1584.857381
1388.384184
728.6386691
707.8093189
751.1056166
715.3953255
837.9619249
996.5280979
650.1880484
442.6707452
593.2173974
792.8723417
741.9471165
475.493091
605.3909988
564.1612339
532.4033285
528.8220965
563.8151073
573.4842968
589.9781088
672.0122207
582.2071086
653.6427024
573.8822413
725.3786514
731.7943617
706.0172798
674.0229009
601.4673908
594.1302087
634.5617623
713.5653034
633.4964748
690.1252673
631.4330156
593.3245669
726.1874036
775.1090528
2772.347547
1234.425853
1392.160976
785.0484988
1107.543778
808.7822147
610.4909669
803.9035738
674.85514
801.3482072
531.1742386
555.3051961
430.0459752
398.4787752
578.1261288
476.3649485
393.2170071
412.9996583
503.6202273
494.2351761
488.4282677
514.1449696
575.0285348
546.6184079
564.5018107
618.1323625
687.1006581
664.9780018
580.8497217
632.9014795
800.2244528
765.098027
748.4837306
803.6776847
779.5965692
758.7246454
841.7199705
765.1877607
700.6571709
690.925022
863.2922919
988.2519795
1548.086014
1043.663461
1440.878019
1146.465211
862.4352205
788.8508062
701.3203948
568.9436185
811.4757015
809.4941356
731.5093924
523.235282
369.6359226
343.7245602
373.3204477
330.8431103
370.193503
361.219028
378.534768
365.21883
497.4044997
454.222423
463.9430445
396.964531
622.2254827
847.111773
790.6628953
691.5145796
689.7960533
642.923347
870.2228264
829.6586428
790.7799018
897.9515736
823.764093
684.0055732
748.0840895
773.5824338
842.1521794
718.1325652
765.3369892
800.8089215
1758.633107
1218.686466
1153.782181
858.869582
701.1124048
917.4291863
685.5412607
556.8162628
681.1206477
506.8291747
472.5902929
429.0243319
461.2339873
293.4513469
268.6731738
289.3639061
239.2132701
271.7399948
367.6440957
362.4097224
416.1390753
503.4620431
515.5960343
393.4532651
528.3737846
744.2590048
1039.376238
936.0200726
759.1487805
1013.073598
1286.160674
908.2470407
868.7556158
870.8750908
998.1170552
936.9218757
760.4165273
676.3780013
738.651647
838.7098446
872.0508526
850.8980946
1768.26298
869.3897095
751.6470817
695.6816212
685.1028613
651.0940459
653.6883187
588.2407345
567.6826121
575.9226001
458.6625737
301.3766542
267.5131009
232.0681161
180.564949
180.1003095
84.25585619
5284.647647
1237.973198
1691.552434
1559.18856
1622.867155
1039.924347
1713.983759
1274.380315
1177.899177
1165.695988
1177.75835
1191.25066
1256.834977
1088.424441
993.2649954
977.3386636
1092.554464
1135.171538
981.7540644
626.0928354
506.6943663
556.0775094
529.3330473
538.195548
415.9346906
437.5899822
341.8508833
319.3782102
245.6681787
183.7431209
152.459248
73.68845168
1919.106874
2360.561185
1659.084323
1934.932864
2133.805607
2103.917232
1545.614686
1298.535615
1182.954819
1409.419112
1221.235742
1080.826221
1102.154833
1056.672823
1097.068393
1457.199269
821.5504971
760.4288309
633.4635628
511.9855327
580.7371071
375.7777015
254.6412483
394.3928083
245.5245379
159.1611919
201.2943216
85.93689247
0.5747027298
0.596484411
0.6134772085
0.6123559434
0.6190388344
0.6200335169
0.6086279409
0.5851350467
2274.688291
1451.575125
2738.579497
2269.650565
2758.652034
2473.960119
2228.04467
1430.152003
1866.09697
1579.889531
1561.9609
1468.674221
1299.595833
1194.256587
905.3174123
724.7828664
598.1183905
524.634176
418.914
386.219163
297.0956452
266.4314403
177.0762197
101.5775174
0.588580597
0.6348646869
0.6909109829
0.7054434183
0.7262367891
0.7281948328
0.7378208154
0.730636128
0.7054605709
0.6786432082
0.6334706328
0.588955239
4179.208119
3372.625912
4152.362363
4329.228979
3010.198896
2839.524066
2236.823588
1590.18606
1823.347621
1617.636911
1544.889945
743.7189484
571.5987897
433.6884265
548.0138629
501.1876832
359.2973734
397.4071223
301.2196829
180.1726819
97.89095225
0.5817791113
0.6345219305
0.6907474538
0.7329812223
0.7880440264
0.8227182549
0.8470361581
0.8559188232
0.8584345005
0.8345124713
0.8180807686
0.7903426108
0.7452430986
0.6953461623
0.6318749156
0.5829032973
11802.27222
3932.670897
4861.010055
4379.361446
2631.289791
2756.322095
2596.901321
1337.614778
1694.480912
1453.280661
1104.004136
743.4127221
600.0256518
463.2836894
498.3965265
517.1934944
336.4529764
215.8435376
97.25205529
0.5924305558
0.6626287185
0.7350030763
0.7926520475
0.8407086479
0.9042876782
0.9303139303
0.952800021
0.9402049293
0.9433600116
0.9415044655
0.9250360017
0.8859113263
0.847710649
0.7811225496
0.7291892592
0.6661213285
0.5940906524
14088.05344
3643.001589
3921.92817
5938.686
4132.298414
3131.137949
2278.457473
1639.110115
1678.311094
863.4690764
607.9735889
475.5491525
360.7186745
373.2593856
256.914774
200.778685
167.1090546
81.68215784
0.5877443284
0.6714834223
0.7426084102
0.8270188045
0.8929205442
0.9521201295
0.9639305416
0.987123358
0.9892723373
0.988473989
0.9789303108
0.9833037678
0.9837857034
0.9781125392
0.955966593
0.8950276896
0.8242123742
0.7431313541
0.6646746867
0.5778629891
20642.52107
7648.672476
8348.80089
4717.090536
3236.254989
2612.689882
2342.317943
2099.532244
2070.587218
773.9268687
696.6885807
383.4319683
449.4860338
300.2683666
230.2194464
175.6231381
108.6783115
0.5784938509
0.6606380778
0.7559137482
0.8327329151
0.9118445042
0.9734366801
0.9846433905
0.9716390112
0.9693377769
0.9377277648
0.9075625294
0.9082835076
0.9204918149
0.946683632
0.9899859689
0.9901038848
0.966639867
0.903096427
0.818022906
0.7400858651
0.654455955
0.5817239753
16153.9049
9424.428147
3413.68016
4070.663867
2304.547617
2001.290262
2636.059416
2248.330924
534.6290109
510.1393864
490.3965298
402.7402279
341.0559002
254.897851
176.5149618
79.40976632
0.6359033532
0.7302887478
0.8194589461
0.9203526854
0.9719780804
0.975565727
0.9483183531
0.8815492562
0.8029163828
0.7448985497
0.7135321754
0.7114769099
0.7412171263
0.7935820014
0.8812520786
0.9474120856
0.9777256001
0.9607138554
0.9039288638
0.8225737201
0.7301462001
0.6339685637
5787.27227
8566.456733
4456.921743
5492.904588
4571.191395
3362.419711
2388.279681
2123.529526
1145.513836
351.5609822
424.6659267
406.3925279
317.9424733
201.81136
118.9111763
0.5862712112
0.6839060087
0.7950450216
0.8969310638
0.9584559326
0.9764956293
0.939100897
0.8330996427
0.7074480804
0.6034057556
0.5324361394
0.4908385494
0.4926315294
0.5304212002
0.609242633
0.7141625149
0.8291926168
0.9367063428
0.9864135896
0.9727359216
0.8853880713
0.7908650831
0.6883334836
0.5789531588
19236.63024
13736.71946
5435.081129
7537.955702
3986.591661
3027.611219
3235.915008
857.0477104
416.0667292
451.4347586
458.2068225
309.4426174
190.6546193
104.9833372
0.6306486834
0.7414073446
0.8556364471
0.9573455475
0.998747463
0.9512916425
0.8281639181
0.6774224615
0.5256856899
0.419427777
0.3552612246
0.324115776
0.3252259425
0.3562730689
0.4230053533
0.5318088222
0.6760609619
0.8258047882
0.9516840638
0.9881744533
0.9335203423
0.8440705752
0.7395561774
0.6221107074
20351.7039
7244.325856
5892.91815
4558.194157
2944.927698
2416.355802
2428.497912
562.7941498
681.4134443
410.1350761
340.6623598
370.6697918
173.0035806
0.5875575521
0.6819659149
0.7911663585
0.8928814656
0.9915034823
0.9755779189
0.875713302
0.7116322425
0.5248998253
0.3854505043
0.2942141087
0.2393117609
0.2153360676
0.2160945429
0.2401287124
0.2931460745
0.3903675646
0.5298977198