/*--------------------------------*- C++ -*----------------------------------*\
| =========                 |                                                 |
| \\      /  F ield         | OpenFOAM: The Open Source CFD Toolbox           |
|  \\    /   O peration     | Version:  v1706                                 |
|   \\  /    A nd           | Web:      www.OpenFOAM.com                      |
|    \\/     M anipulation  |                                                 |
\*---------------------------------------------------------------------------*/
FoamFile
{
    version     2.0;
    format      ascii;
    class       volScalarField;
    location    "3.989";
    object      mfp_mixture;
}
// * * * * * * * * * * * * * * * * * * * * * * * * * * * * * * * * * * * * * //

dimensions      [0 1 0 0 0 0 0];


internalField   nonuniform List<scalar> 
50792
(
11054.05857
6292.023285
3148.905785
4124.474554
3506.100619
2376.431252
2028.825167
2141.965185
1835.39915
1774.531305
1593.556437
1621.804143
1363.237404
1489.188128
1328.295745
1117.928794
1098.791078
1022.430817
1044.744995
958.337794
941.0437725
936.063095
857.9865857
838.9483944
851.3207066
683.0372847
911.0453922
803.4663191
807.7051941
812.7003359
758.4086535
758.9627899
664.2184596
756.3388815
804.5360538
796.0430514
815.2047853
836.8785858
782.1929007
796.6195099
770.4644536
775.0266141
7005.237207
5506.875438
3717.120281
5314.46905
3691.750207
3299.881302
3003.202412
2479.071834
2328.477174
2044.742549
1798.659816
1688.160783
1505.363025
1423.030276
1279.472076
1319.070779
1276.53074
1250.951093
1215.314903
1197.044333
1189.818811
1179.138471
1106.327933
1084.326199
1019.195871
1073.722235
1082.775798
1044.693769
1007.946102
1015.50657
1038.096529
1076.339237
1079.857721
1123.548792
1111.142971
997.0271194
1063.451765
907.1830984
986.28957
1000.607444
1032.164669
887.7813074
14170.98219
4693.957404
5300.639889
3982.051559
3270.265621
2727.664159
2104.124451
1986.998872
1686.862731
1684.540072
1577.134513
1415.22911
1431.199629
1470.198955
1432.459837
1255.751691
1266.980095
1207.361804
1127.787842
1102.253811
1133.158532
1145.208845
1049.506827
1057.042797
1064.19533
1036.309979
1080.708846
1074.928295
1046.179716
994.8619541
1008.204393
972.538288
994.3062303
953.5392655
943.261317
985.0779626
963.9472006
984.0543392
924.0092164
976.2890873
1004.702554
946.1040023
13760.75667
8994.843744
6719.68621
4512.049366
3661.666256
2319.850521
2643.250032
2255.737951
2220.180104
1920.370095
1571.065463
1583.712098
1351.398286
1494.249896
1431.052922
1226.040328
1258.20519
1257.831312
1318.679991
981.2179304
992.9683819
1012.28327
1132.297584
958.8456717
901.9832867
1041.181333
1130.033492
1145.897998
1003.025807
949.8422504
1126.716858
1075.202323
1108.289357
1097.600056
1025.698491
1085.141035
1006.818932
918.3357528
821.942187
884.673107
863.8369534
851.2790684
11988.23905
6325.973588
6794.486871
4176.841472
2942.968363
2739.510422
2280.477127
2285.414697
2023.735474
1726.549393
1719.836434
1401.334468
1585.556078
1480.105067
1315.698959
1266.052988
1210.910866
1244.053829
1111.377264
1088.883919
1058.552022
825.3550749
882.833695
985.4640147
865.2052952
945.5949887
1015.205356
1090.473595
1073.492676
975.317612
983.8575486
1183.717905
1107.344559
1170.021795
1113.380017
1001.034092
1014.048629
996.9715809
911.8445868
1000.24595
1032.996066
1042.441669
4250.649447
10612.92796
5398.296514
5099.523702
3979.466464
3332.643123
3017.91195
2673.331875
2158.374022
1942.435366
1790.921546
1567.191981
1646.402204
1499.985776
1465.804509
1412.412317
1317.225705
1119.230772
1106.747832
1033.351492
985.6497786
884.705518
820.4771997
853.5861295
1027.54748
1016.106263
951.8697341
889.7915636
883.6004608
1083.955011
982.4660022
1151.23711
1020.054823
1071.65802
1081.31763
1052.784904
1139.587205
1021.631681
1092.053325
991.8377135
1020.005705
983.6170979
6137.934572
5395.86289
6316.597746
2345.021642
1938.824802
2315.671669
2334.996565
2228.720136
2239.185928
2018.565203
1850.002073
1748.181655
1554.288228
1559.777641
1497.596599
1332.772838
1236.942668
1240.291093
1149.534199
1025.003502
1015.711297
905.7332202
921.0524184
989.996579
876.089952
890.4335444
1002.013844
972.0448267
1052.301537
1000.230749
923.8062427
949.576706
1023.031754
1020.856496
977.5397252
997.3247841
981.2911674
890.2974636
913.7978067
856.0012032
892.819214
825.3507267
7361.922168
11789.03914
3373.289617
2694.820512
1813.169507
3038.137017
2708.783066
2449.183032
2044.891662
1877.197509
1798.490734
1529.609439
1270.050189
1326.127474
1193.573802
1132.330175
1027.294745
1085.510457
1136.117858
1123.061918
1163.197673
1056.576551
1045.988587
1073.26188
1006.78847
933.7807714
911.7255834
963.9297483
979.8929821
926.81154
873.7865337
944.2566551
915.3011942
966.5170046
949.0808803
955.554642
908.7699409
857.5619795
900.9372169
983.845567
964.1701491
925.8238623
5542.900601
8775.230893
5052.563669
4026.627704
2995.789005
2683.369792
2359.673994
1973.59284
1818.458444
1734.36474
1551.532842
1451.216278
1294.63142
1362.082262
1323.866165
1223.647906
1204.69052
1249.182269
1221.81256
1126.2067
1187.998675
1041.674322
1266.227077
1263.815318
1101.095797
997.2771696
1126.653659
1070.291372
1127.548116
1017.046304
965.7759326
996.2104514
939.8008675
991.6290235
935.7385873
1027.927005
850.496866
803.5638596
926.3683391
872.0606887
935.7552087
880.5408551
4135.200272
5278.800785
6548.28926
4831.133884
2936.61891
2673.128216
2370.038191
2090.68273
1864.431626
1722.293402
1600.704655
1450.553032
1527.978747
1487.734147
1458.965623
1383.912216
1411.713156
1273.401552
1070.027348
1107.767412
954.4496273
1136.328373
1051.975683
1101.694329
1034.311942
1010.794403
1000.798702
971.4587078
946.8220192
882.8811061
1005.604786
984.4570775
1059.659637
986.0055344
1038.004035
985.0329978
927.8339734
916.8034064
1010.700618
889.7706221
933.0510859
990.7818301
4458.262112
4774.59228
6280.997534
4298.893733
2765.955776
2348.932137
1941.548135
2013.326405
1708.635038
1686.69974
1596.030179
1589.323228
1619.641261
1454.023543
1374.974361
1329.552201
1296.265565
1253.754164
1186.594057
1197.621538
1223.643917
984.578367
1030.660847
1126.801432
1140.889475
1078.452027
1072.741051
1018.914019
1037.208769
1012.140092
1023.864143
1036.751682
937.4138872
983.6649052
962.9072475
998.8740943
897.2104172
903.0464161
869.9374267
930.3954286
920.6363063
803.974638
5976.043253
8489.61258
5891.492901
4202.374766
3188.682396
2409.68433
2133.454384
1965.033169
1681.228781
1717.410672
1532.177339
1273.725594
1305.626277
1350.480379
1283.375407
1259.013142
1188.106871
1147.1098
1007.685309
994.3453151
1042.323146
1057.202275
1070.511954
1057.894285
1058.672316
1067.722447
1030.811345
1079.696972
989.4703254
1102.982244
966.4828166
1029.001917
1005.134337
1206.316901
1261.605072
1206.495206
1152.850063
1074.886176
1066.804332
1025.141018
996.4732134
970.4535435
3435.731888
9800.268818
2879.634904
2959.274467
2988.612541
2478.596071
2211.119488
1969.377194
1817.426679
1687.058278
1430.324175
1365.769667
1377.644845
1359.654204
1405.204822
1212.244447
1264.876401
1227.638779
1098.959605
955.4583546
1091.314802
1053.470471
975.8733135
1037.843344
1009.105213
1024.362268
998.7516199
906.3581606
847.7148648
885.2057118
976.6124434
971.5306112
884.5896963
882.0390772
895.2854988
883.6719563
934.4915537
1069.618857
1081.458516
1062.585356
1082.781434
1057.267358
2881.553157
5400.670161
5502.54816
4289.274169
3247.00262
2936.931213
2904.249122
1907.494523
2002.170778
1937.027699
1866.131952
1661.92767
1766.503972
1450.809559
1445.900271
1367.434811
1279.039662
1230.335358
1267.907497
1266.695082
1230.232586
1122.575052
1027.037199
915.850731
945.4317177
945.4444671
885.0601338
862.6497967
867.4146516
1095.419109
1036.824961
934.6021981
974.3795045
1013.62601
1019.166409
835.4993102
894.573033
986.6719787
954.7697847
972.4557297
957.2811185
1009.135475
1954.216992
9813.077677
5894.01661
4447.388195
3643.798449
2862.083601
2349.507347
2089.358601
1955.829499
1775.354002
1847.098645
1734.864369
1659.747566
1551.464393
1370.191478
1357.566093
1284.605948
1250.180256
1166.560509
1185.445176
1250.61576
1192.967198
1089.86459
988.8295565
1056.851843
1002.471065
1171.548542
1060.599969
963.4284853
856.2491127
907.5651725
975.9636968
1006.8659
1025.240722
894.8864334
998.4839008
969.8050119
954.015603
993.8466546
1156.585923
1031.036679
1015.485208
3914.504039
5546.93674
3609.694195
4398.31622
3550.663372
3254.40049
2969.988068
2312.667803
2146.770309
1863.788572
1751.283859
1691.014116
1583.893798
1442.229284
1448.650334
1271.097877
1091.250666
1153.81743
1172.825868
998.2731018
1032.782952
1006.004115
1164.987834
1080.920315
1043.901829
1039.957277
894.0190349
876.1689734
1002.887248
950.3017008
1065.083231
1141.94031
1064.849132
1204.657174
980.1909026
1139.154532
1029.713809
1169.956042
1178.82096
1049.155721
1052.284977
1008.420772
6431.958259
4753.374694
3296.963437
3783.280887
3631.396215
1432.024111
2423.047096
2093.184558
2081.330101
1759.968083
1582.619634
1649.468159
1442.799506
1576.359014
1404.448238
1439.973157
1461.589699
1274.204665
988.5646285
1167.547338
1278.549382
1223.345513
1180.406123
1061.318284
1048.139799
1154.38006
935.9403669
1016.003361
928.2605638
988.3450333
1004.670494
986.1577321
918.3649081
858.4609411
808.1934974
840.2844769
807.4365651
829.6386343
845.4092295
802.5531873
918.4729775
895.1071257
2618.526333
10270.49047
4890.731195
2577.721983
4119.913453
3009.427252
2732.283866
2502.513919
1979.971837
1803.158782
1741.370495
1736.045293
1692.489049
1559.540578
1445.774699
1280.124183
1307.052344
1234.90307
1037.921608
1026.683012
1177.844643
1159.662496
1231.665156
1038.603653
1186.87219
1093.753243
1200.667802
1365.34262
1277.164868
1237.690783
1081.36461
1041.038266
1097.931522
1026.965212
967.3698908
871.0077398
834.8934178
1017.35214
947.0314593
940.2081762
986.9395379
828.5515988
4980.945652
4803.975812
6558.894532
3779.289362
3617.63385
2960.673244
2319.767352
1981.578324
1890.835819
1767.687368
1503.75675
1508.486239
1437.062098
1352.377844
1224.27823
1191.194138
1206.197844
1167.201679
1140.558926
1112.814436
1106.501261
1097.899446
1061.812889
871.922912
1026.429547
1011.792529
867.2328576
927.9838292
931.7720664
893.6928866
940.9440305
869.7252981
1013.52616
1026.217925
985.7942332
987.3008677
926.4212279
1003.609141
1068.473653
1027.077963
988.9456082
887.5435915
2774.946206
10228.10817
6372.146504
4139.847177
3133.078471
2872.702363
2285.561191
2014.491026
1709.820938
1566.522647
1449.520802
1549.695004
1438.473244
1311.740397
1296.871439
1155.164443
1148.506493
1094.5987
1225.790086
1029.887556
1065.445911
1042.574065
1021.979273
862.5207477
1002.862887
1000.46743
934.8812299
976.7978118
1142.918294
1080.201904
1098.165644
1199.975079
1101.174043
1010.402447
1104.835538
1129.763437
1102.346386
1068.399719
1013.022198
1037.547339
1079.446695
1043.388429
1764.907424
4029.019686
4937.700514
3739.595611
2746.722971
2418.960007
2035.383167
1918.755708
1672.03666
1582.790563
1381.612124
1199.41386
1260.921088
929.6491702
1185.800658
1094.748473
875.263064
961.9782474
995.0323004
947.0922256
846.7355338
984.863201
1075.315219
1064.051888
986.8421426
974.2808653
920.0093904
996.5110954
952.9405359
1125.648855
1073.724435
1099.870809
1069.211735
1147.244517
1179.250683
1057.655219
1145.176354
1076.057045
1193.170754
1251.924906
1219.968216
1192.531409
2929.569589
5808.295342
5270.790328
4831.722899
3671.239642
3335.358212
2684.693998
2305.04471
2105.489577
1852.783005
1641.84711
1456.375182
1350.038363
1280.517751
1025.368718
1129.413021
1105.971154
1010.966049
1099.088981
1044.531125
1000.960078
1013.280112
888.5581721
876.0064079
1066.341818
1041.314733
988.3205203
1043.140733
1095.567853
1004.911173
967.124066
1049.765323
1005.099671
900.9396201
1147.688292
996.6658187
1142.067875
1087.938683
1341.886129
1205.075402
1253.138476
1245.425001
9905.528431
10012.14836
7273.893363
2652.195394
4231.926396
3593.154205
3141.927553
2508.886318
2033.846177
1876.677801
1896.618944
1762.560811
1630.362378
1423.343581
1536.035651
1306.488299
1291.686366
1185.514545
1187.986414
1178.740782
1072.834538
1019.075074
957.974227
1011.208884
844.8015688
1013.31362
1013.616487
958.0624565
950.31743
950.7106049
881.8340939
761.9991232
821.7649545
917.2766617
848.3759036
944.9197084
847.9749629
859.4752438
921.1888638
1000.022594
1033.950776
967.5433518
3131.528675
6410.31039
5945.52085
4522.881431
3175.300561
2605.029448
2188.640217
2202.166442
2155.597155
1810.175163
1483.351585
1570.142772
1419.391659
1416.206558
1385.980357
1379.567983
1219.064501
1092.454909
1125.255189
1222.234991
1200.51725
1140.409371
1092.860883
1128.055306
961.2979209
1036.609662
1028.400517
1251.181555
1223.826998
1161.289662
1125.834347
1024.346609
951.6550297
1022.060917
1075.964959
1072.470737
988.0393519
866.7588535
1005.110705
996.6240857
1018.410083
1066.042776
1928.140907
14062.61988
8395.209509
4909.150528
2667.35998
2811.987843
2637.022712
2140.919744
1942.24014
1714.296156
1606.588916
1431.134534
1364.791154
1355.772385
1206.636026
1149.442436
1185.992418
1082.187789
1178.723763
1030.542572
1150.843114
1127.430799
1140.175105
1092.951984
1046.69751
976.2538437
1046.615435
1081.145386
1111.561163
1115.544502
1078.719738
966.3586766
965.2732069
946.7230391
1039.186674
1037.652048
1100.45643
1051.667029
1142.995994
1148.652821
1107.955194
1079.011993
1875.425026
13659.82219
6572.458803
2503.32194
3857.878956
3153.109556
2424.998694
2367.800121
2258.684069
1867.770256
1648.321831
1683.032861
1424.952403
1235.536693
1170.351643
1179.591862
1204.873726
1249.784188
1307.929851
1252.888838
1337.348039
1273.905326
1118.088372
1124.165915
1129.164332
1016.334527
881.8503069
861.7922487
920.3975253
923.504787
921.5351651
1079.407166
925.2143236
980.8383967
911.7202474
972.9190043
1064.34732
1054.875118
984.6785266
1012.438839
1058.736253
931.2548284
8030.800167
12714.47267
4985.091839
3768.51443
3714.999047
2882.64625
2105.383512
2025.981025
1783.140473
1567.350146
1627.325948
1466.610585
1422.757804
1238.967501
1247.647647
1211.428073
1011.797235
1015.825622
1130.239709
1024.851179
1039.270226
1205.968734
1162.257005
1126.727618
1021.086216
1122.445969
976.0645372
966.9473038
874.6051749
948.9780391
889.236374
911.2588865
949.4916136
917.3680409
984.5622077
1012.013306
1052.197465
1121.564857
1142.282225
1073.23566
1053.795404
1013.664236
4249.293206
9708.055798
6930.865192
3536.39607
3242.333844
2390.014381
2391.928986
2216.43765
1880.27258
1456.490723
1459.752368
1432.609936
1342.279099
1240.269702
1279.521294
1262.890642
1189.670523
1190.38985
1147.993182
1133.797457
979.2973476
1101.240434
1092.90855
1069.004682
1016.180116
962.5350665
891.2042787
882.4469438
857.7768572
857.7084707
871.4262763
852.7528993
869.1737857
856.3005116
838.5292791
913.2728082
875.62669
914.4885496
908.6105407
975.3426176
1004.997237
955.6790997
2704.984422
8039.328357
3561.70451
3369.550897
2820.112668
2732.2005
2455.405157
2264.351439
1969.796655
1792.395147
1624.999455
1475.228308
1384.577578
1437.095863
1350.538179
1360.943542
1271.101295
1055.80828
1227.658065
1089.934975
1091.478717
1184.287791
1143.738176
1011.023161
985.1816966
1038.709791
939.1558692
1047.259341
885.0206849
862.439511
1013.258591
1017.098693
944.4592503
1009.939666
977.4397131
869.3147294
922.0998226
913.2968467
887.0865984
880.7253809
870.4041363
894.1503493
5549.352655
7392.134143
4625.257714
3553.575712
2311.122355
2633.892789
2372.226198
1998.234355
1844.005861
1475.556554
1632.333624
1477.056302
1287.093764
1141.116221
1111.979584
1061.869315
1092.117008
1066.292126
971.6133173
1129.109993
1081.632145
1083.249168
1064.900801
788.5570701
967.3260145
983.7846588
1062.929736
1057.868336
1191.405873
1229.572713
1147.851025
1240.268182
1330.382326
1118.643287
1213.57985
1114.614263
1073.479986
991.0144667
1072.007051
1065.540902
1290.723035
1190.709016
5312.667557
8701.1825
6407.271675
2500.959936
1915.828675
2858.660875
2312.109336
2433.564952
1901.869205
1769.017497
1728.557091
1607.452109
1434.602045
1320.057783
1337.763171
1386.621576
1228.925256
1364.085283
1250.35556
1283.546215
1031.641533
1167.817777
1087.616836
1215.677652
1068.502553
1196.484937
1140.503096
1173.320099
1046.428061
1142.405418
1039.648994
1066.553567
1089.065831
1135.66505
1110.924133
1081.013862
1108.408706
1062.72906
882.4837692
1009.235116
930.8580877
916.2963424
3399.245992
6338.44466
4775.644513
2613.134433
1983.565948
2874.754512
2321.688785
2200.355478
2117.217943
2090.56575
1775.083649
1656.934639
1477.017974
1270.96405
1367.221327
1271.538296
1173.842564
1171.767749
1154.464388
1035.462041
895.714805
1008.77836
1019.357263
1004.936046
955.5411276
1065.859136
1079.843072
1033.1016
987.826229
963.1864984
942.5941063
896.0476414
1002.068776
1011.777303
1098.625646
1042.016666
965.2560899
976.6855138
1143.413694
1029.933487
1126.462837
1085.309413
6588.177301
7531.09489
5431.398796
3095.277482
3736.3678
3115.352371
1245.991182
1670.964945
1731.054905
1553.678576
1530.245542
1345.493567
1268.891805
1173.677711
1052.109946
1149.62962
1103.725517
1031.79821
1149.684318
1010.463824
921.9153655
910.1201346
891.719321
813.0886474
928.6239211
949.4128871
1130.81622
1133.03662
1065.048762
1029.188473
965.2593688
941.7594241
963.647449
891.4504884
1026.907664
1016.271868
1027.376129
1022.178834
977.1083077
942.0193372
962.4791251
957.9293533
10387.10592
9549.284844
7314.537328
5303.459178
4102.78096
3051.311098
2372.152524
2091.013241
1773.462302
1778.401952
1458.535863
1390.432785
1331.953189
1292.277889
1183.855032
1150.802464
1118.423799
1028.53928
1106.401621
1081.83745
1037.930842
1082.927374
991.2248156
1084.273175
1117.006475
999.7405167
945.4608803
1042.091386
1002.07729
1153.955555
1126.083047
1071.705984
977.1399427
1079.72962
989.6369228
1035.219545
1069.764909
953.4380878
983.0675038
992.9845547
999.1462841
934.0526701
9026.460036
4754.609443
5424.615636
3838.324158
2611.652787
2849.445355
2289.925992
2076.512932
2152.697269
1779.012739
1709.781114
1860.268537
1783.88763
1724.870611
1484.375738
1480.164517
1532.509016
1291.892225
1435.1154
1392.396919
1233.83638
1060.000164
1179.107312
1014.427021
1062.644146
1167.815009
1153.728255
1122.577306
1197.663635
1094.90496
1211.778039
1108.629895
1079.46569
1017.771659
1089.570292
986.9214955
949.2126457
921.798294
933.5073229
1078.204638
1065.910661
1005.223716
5042.354648
5139.439369
6140.207095
4704.461663
2876.322802
1883.219375
2529.198005
2079.37164
1836.636781
1714.314508
1531.766685
1457.422856
1341.544577
1262.143281
1390.521815
1332.602683
1162.740635
1122.928561
1084.64987
1050.16967
1175.427242
1116.328555
1075.778309
1018.434384
1085.866859
1083.534378
1046.969553
1128.763039
958.8332759
1165.733031
1115.452838
1123.040019
1177.274029
1049.678534
997.4678961
995.5868029
965.2013381
956.5074653
898.8094267
860.2970346
895.6961843
909.6062048
3784.883844
4764.912158
2577.342317
1805.525746
2648.35348
2896.232135
2293.787712
1998.100303
1989.639435
1567.426647
1546.254734
1418.074243
1274.453779
1320.145871
1193.526062
1178.773089
1213.758081
1096.10298
1064.125419
1097.142281
1054.64095
1030.991954
1034.435724
1022.914129
978.5522315
975.6128462
1001.479637
1007.319288
986.9241012
867.5051429
1012.805894
949.4423661
983.4672777
989.1491706
899.8494648
870.5165309
980.6834169
989.0235564
1023.950784
968.6056663
1006.671814
1038.975902
3131.845693
3993.187319
2735.553319
3880.991026
3508.518849
3057.373167
2645.958633
2364.750527
2090.737482
2071.577089
1740.580529
1792.768519
1679.270132
1526.446918
1535.525516
1272.956125
1346.574171
1375.627202
1304.454885
1286.592777
1340.241654
1232.024846
1125.539101
1082.660892
1173.790789
1111.787779
1095.202633
1115.645171
1111.800075
934.1854171
1010.102709
953.6364889
954.9289298
977.447793
1006.77729
849.2396526
1014.024777
1016.690996
1045.380986
943.7368517
1021.027572
1038.300075
4264.196595
11008.94668
6482.844949
4223.562316
3193.156473
2741.423478
2259.916356
2046.529098
1814.122956
1605.950371
1573.568784
1454.991248
1456.629284
1350.923244
1303.410444
1127.061525
1265.42953
1227.734018
1147.774267
1186.905084
935.1024413
1118.076134
1226.905898
1185.060464
995.9344591
1058.866281
1044.973657
1086.048821
1087.046119
1067.367429
941.5224739
920.8457632
949.0967209
965.0408015
1069.891003
1140.191883
1143.084316
1129.859574
1087.047841
1063.934616
995.2712003
919.9880464
2508.757551
5718.212497
5101.216396
3520.080787
3459.539248
3115.038358
2177.131641
2322.675179
2062.338577
1940.219784
1760.171448
1395.173334
1490.266714
1402.312335
1296.258738
1133.754452
1290.858489
1291.488526
1152.795824
1122.919573
1195.565009
1254.147454
1204.096645
1198.210353
1175.99821
1100.972613
1166.41319
1261.379143
1186.111166
1149.136764
1065.804998
1060.732677
911.622872
983.1356467
1026.104111
1070.555727
1200.979017
1214.743815
1145.164824
1146.019504
1085.81215
1014.772432
3515.596358
8657.246349
6055.242021
4093.370809
3350.007712
2372.629647
2457.68849
2328.595322
1856.681016
1894.487621
1700.79251
1601.157444
1465.673834
1522.369521
1354.125477
1246.298199
1265.105746
1140.648606
1137.909227
972.0609832
1159.553204
1155.218899
1136.873817
1104.023729
1075.101712
1058.03688
919.5532352
998.7162917
1029.562531
1023.552082
1010.235323
944.0796249
1018.817832
1005.834859
1051.386476
977.3470782
1051.57937
1197.371066
1120.15743
1087.907468
933.5504007
884.7903731
10277.85572
9670.212656
4216.858953
3328.230423
2907.777817
2386.937389
2504.390803
1977.356924
1825.828873
1575.97358
1735.663716
1543.282142
1421.58914
1316.283538
1287.882967
1246.844983
1053.01512
1034.208015
914.7822103
964.1513706
914.9144758
849.9373192
967.3680516
958.4057101
871.4129454
837.6194168
804.0693578
801.5562608
817.4279893
822.5175259
807.189595
813.2698734
786.8390012
814.153759
794.974901
757.7424773
737.9818327
767.7565343
706.9840263
671.5466033
699.4174587
738.5149622
1137.476744
1502.229611
1947.889021
1394.876645
1263.302903
1476.016281
1298.647728
1380.803225
997.754563
1099.041381
1112.477506
815.4262901
893.5363219
855.2371954
903.3582892
895.2991068
891.3358858
839.649398
867.8353108
882.3473195
660.7566011
685.5084128
745.5734644
721.0388431
721.973093
685.2989326
602.3859105
562.7334954
635.8226251
632.5925699
645.7002494
615.0927112
610.4720431
633.5457854
634.2088769
610.6374176
596.2762595
547.2996012
531.2542103
544.9363124
503.3175507
524.1953406
1078.185116
1149.058705
1235.265069
1190.071345
1320.036553
785.8880705
874.70595
523.8430085
783.5777345
652.6682099
840.9751812
628.3803488
530.2710084
729.2125106
756.7040493
677.0390064
648.6845445
596.4649203
730.9063147
556.0596795
545.4762013
567.4679335
556.663803
638.0952589
629.0506282
524.8632646
530.4922863
523.5976828
522.77237
604.7273297
683.5821603
656.6777739
637.0455565
551.2816905
556.8071352
480.7916221
563.6189984
558.6292971
533.0885715
579.6355394
559.156781
609.1218065
1627.005064
816.4395666
957.6699822
1292.031446
1164.678915
652.5478345
510.0106462
604.0576986
528.8233764
573.6819062
726.9045984
521.0175371
346.1738165
501.9577094
687.9918638
621.3293323
395.3732109
460.558808
468.1907235
451.4914878
450.0502107
461.2944289
463.828951
459.0181034
516.5464599
493.6455076
535.2458704
474.1359177
544.3641692
564.3781515
550.262223
559.9264309
522.406544
510.1860001
538.4641671
593.1566619
522.2355554
566.0557899
524.89847
486.2870764
577.4021807
619.951843
1871.977933
1091.88524
1168.927346
714.3166222
927.2720436
754.1383859
544.8045733
654.679436
486.2742835
594.9887641
468.6096496
460.7192093
374.5775977
328.7881149
462.8313952
388.4926485
321.2780527
339.0872136
438.271301
420.1234526
420.3413586
418.9708423
468.4526502
424.7840368
495.6653631
477.6504638
559.1748771
550.2320274
484.7424928
514.6302132
608.7941724
593.7432772
595.4228944
651.6895344
620.00247
612.0400434
659.1307815
614.853095
589.0338999
549.0924676
664.439805
755.276561
1252.757935
778.4292822
1102.303928
953.4200653
717.6930512
642.7443717
519.4553714
503.4828876
594.3928388
594.584656
534.4349551
440.6389413
338.3776423
295.0676207
333.4395769
268.8182208
291.1156543
292.0206981
327.6548697
320.1099652
409.563173
370.3213328
403.6453355
340.676472
544.6139611
673.7724023
623.0014269
587.801111
595.7126983
568.3694686
691.7578239
691.0858057
682.5566642
728.713301
706.7833845
593.6656962
595.3251235
610.3492123
672.1222594
605.7788602
636.9072933
667.1734032
1338.162886
918.8770853
914.4125241
678.2416837
598.2178313
795.5107533
497.2329695
502.8995195
494.4950136
421.592346
398.8919889
330.7756324
341.6123085
245.4069215
224.7752864
226.692196
180.533132
210.6335402
300.8871125
299.9816138
368.841507
429.5822593
438.4830498
326.3642591
404.6182727
654.2937341
806.6007623
742.8437871
650.2888202
875.0591439
988.6368082
799.8057582
730.9184201
754.0658506
857.7703049
781.1606278
614.6385727
593.1363614
631.3504365
691.4932509
708.1949665
699.1303892
1245.195462
657.2010865
576.3010177
572.8861175
523.8222528
542.9315202
438.2903871
509.8831266
430.6856482
459.181815
371.4049919
257.0299677
222.2538554
195.6080969
150.4493772
154.4197822
65.63526382
3999.093889
1178.56049
1276.520032
1219.605208
892.6157292
918.5105628
1337.61314
1016.496345
973.5616601
959.1946333
952.9347101
943.348587
966.1075097
894.8609981
839.8354418
824.602895
891.8902497
1010.301739
783.3202546
511.4338937
411.1605646
432.3832393
444.6363737
418.7440869
326.6024194
322.3137105
244.7923681
240.62281
195.1479704
144.472172
123.5918566
61.3633431
1927.919196
1495.05975
1266.243303
1581.384931
1614.252763
1822.270551
1246.691459
1159.123736
1056.638282
1162.191525
1020.58772
895.1827319
898.8702726
855.6957671
878.4540937
1009.445118
771.577432
604.0839299
484.9281114
428.2343653
469.2534115
297.1360775
194.7822837
298.4605475
206.8903275
129.8056681
154.414547
67.78729161
0.4586709544
0.4804694651
0.4909702297
0.4912302142
0.4960706892
0.4940281674
0.4835536145
0.4655110695
1928.522656
1176.702524
2460.843488
1938.259592
2288.566656
2207.530568
1968.377602
1226.161461
1540.191687
1284.382332
1273.626684
1216.95668
1082.513218
784.803875
650.4340584
561.1886408
482.8147038
427.705521
344.3489451
319.4081951
240.7720818
210.7540566
138.5966466
80.38584378
0.47004453
0.5078804098
0.5494746539
0.5662489312
0.5800860969
0.5832652105
0.588155983
0.5841963629
0.5646361962
0.5392014682
0.5024223665
0.4692863385
4186.905467
3015.368993
3954.294149
3764.659317
2484.309451
2402.95669
1809.436951
1361.812037
1556.727941
1348.841143
1267.07454
596.3705102
482.7156288
396.7976361
431.9856073
412.3715371
290.5985767
268.1261268
219.4582595
134.2194596
73.29636375
0.4603701961
0.5065802185
0.5527747587
0.5919057305
0.6308642498
0.6586435947
0.6778290527
0.6840960919
0.6835376792
0.669218561
0.6539496033
0.632201167
0.5919864885
0.5533317785
0.5038100934
0.4622105941
7960.320642
3781.953099
4314.679819
3668.109109
2367.199948
2399.703712
2161.899325
1193.463038
1525.543018
1286.104876
983.3097858
615.3515273
495.3025423
364.9927632
383.692552
395.2114661
224.9977854
158.6365852
78.92043726
0.4721424862
0.5310387227
0.591363067
0.6366828243
0.6750554794
0.7209835126
0.7479790371
0.7631026238
0.7530918805
0.7569491038
0.7526760057
0.7410515303
0.7155967692
0.6815514941
0.6242055465
0.582932412
0.5282222811
0.4723354582
14088.05344
3643.001589
3810.257835
4958.288779
3412.242162
2317.265252
1992.904397
1390.227802
1385.395873
759.0683836
449.7295505
402.2424407
300.7655618
326.1166914
212.1802715
151.9821974
120.2797484
65.03302091
0.4717831747
0.5412953657
0.5977060102
0.6656985906
0.7173012764
0.7591255224
0.7687665846
0.7927998137
0.7896251512
0.7864297718
0.7866021694
0.7870303378
0.7867826866
0.7810417562
0.7642632008
0.7132145213
0.660257848
0.5926719831
0.5341148031
0.4625770482
18741.05373
7185.627975
7223.089869
4163.757842
2472.833576
2159.703705
1719.825632
1587.296169
1634.793008
686.2107071
587.757172
338.4719382
418.2782364
269.9481631
204.8141344
144.3627113
84.31630785
0.4639724789
0.5271867314
0.604461554
0.6713868105
0.7304260935
0.7801090457
0.7907991788
0.7779082923
0.775562199
0.7437094515
0.7258941665
0.7275264359
0.7361087202
0.7569001053
0.7931341939
0.7892324612
0.7731897277
0.721834197
0.6571754927
0.5923304811
0.5198591676
0.4597170758
13406.85568
8014.968766
3142.771819
2844.546801
1965.768364
1838.663734
2248.963393
1862.553342
460.8696679
446.3662279
421.561918
332.3881326
285.623748
213.585039
146.7673941
65.5456907
0.5065909592
0.5844887103
0.6571554919
0.7311110605
0.7804491692
0.7851389819
0.7559944224
0.701417886
0.6399589449
0.593219661
0.5698118179
0.5675778366
0.5932469091
0.6343941049
0.7041468549
0.7595320249
0.782432855
0.7678257746
0.7262939743
0.6560570291
0.5850162342
0.5014045233
5787.27227
8118.418369
3849.036768
4761.798359
3611.647617
2731.24701
2066.828521
1809.902255
741.2924511
296.9345933
339.7271413
329.0350236
266.3478206
174.5762768
99.63744142
0.4680409176
0.5486957892
0.6370705107
0.7184418469
0.7677550697
0.7830490885
0.7489307957
0.6662509837
0.5653098569
0.4794517913
0.4241502697
0.3921099322
0.3931013164
0.4239979796
0.4842439542
0.5667894094
0.6639860427
0.7480838171
0.790594301
0.7806353521
0.7106418617
0.6318899074
0.5466410133
0.4606187436
18775.64296
11322.81405
4911.736318
5859.415332
2474.860091
2507.024977
2221.956658
800.4128177
347.7912607
362.4071459
348.6283153
235.0677317
144.7536064
81.49184372
0.5006075152
0.5934864617
0.6873328411
0.7679680158
0.7989385409
0.7609458027
0.6630663079
0.5393832036
0.4200947625
0.3349735277
0.2832990009
0.2585691742
0.2590155216
0.2832913294
0.3365704061
0.4213806855
0.5375240879
0.6640761938
0.7626948355
0.7933202834
0.7499488515
0.6756966716
0.5911217
0.4972829941
14796.19681
6358.425427
4928.786069
3724.615126
2506.44294
2568.371692
1882.467106
484.0990211
525.6305634
311.5290574
297.9379017
269.3437392
124.3978998
0.4672665692
0.5417611133
0.6291950018
0.7155232767
0.7950293008
0.7833904583
0.7028303685
0.5677496879
0.4195481049
0.3078492104
0.2345914522
0.1911100875
0.1720457965
0.1723164964
0.1914079587
0.2339043548
0.3096110714
0.4226708799