/*--------------------------------*- C++ -*----------------------------------*\
| =========                 |                                                 |
| \\      /  F ield         | OpenFOAM: The Open Source CFD Toolbox           |
|  \\    /   O peration     | Version:  v1706                                 |
|   \\  /    A nd           | Web:      www.OpenFOAM.com                      |
|    \\/     M anipulation  |                                                 |
\*---------------------------------------------------------------------------*/
FoamFile
{
    version     2.0;
    format      ascii;
    class       volScalarField;
    location    "3.989";
    object      mfpToDx_O2;
}
// * * * * * * * * * * * * * * * * * * * * * * * * * * * * * * * * * * * * * //

dimensions      [0 0 0 0 0 0 0];


internalField   nonuniform List<scalar> 
50792
(
103702.875
11994.79755
6779.018502
22801.26516
21119.48318
16402.85393
7937.808193
11731.89268
11024.14395
9222.979832
8007.765428
9167.973387
6475.397699
7550.263966
4924.9009
5369.948484
5592.099366
5202.246089
4013.286145
3341.280393
2818.446532
4341.228931
4588.19742
4468.683067
3980.894921
3438.471414
3204.839447
4075.787357
4128.37781
4131.18665
3718.291383
4438.064315
3518.613917
3389.39631
3850.051274
3234.498441
3154.623133
4058.787813
3356.614935
3318.22961
3333.318099
3195.533884
13227.767
20460.61459
16651.90768
13604.09059
10663.9591
7712.071461
11698.11543
7458.498437
5906.112605
7638.24886
6727.516454
6767.338341
6334.785962
6709.050002
6192.07759
6493.58049
4587.781953
5845.511664
4649.232609
5167.646566
5050.114375
4544.575919
4618.288815
6081.890979
6358.816619
5025.766218
6716.171473
5149.204979
5525.443072
5139.233028
6064.685339
4655.124847
5559.796523
5741.573117
5519.171517
5348.706862
5843.009825
4047.416545
4706.523237
5289.118709
5467.524862
3675.452395
151895.6629
27512.28567
14816.75962
13674.0072
13245.54451
11083.13855
6665.021512
16174.11768
5838.294894
9622.68455
10417.68624
10145.51641
9173.394253
7966.872185
7327.598148
6241.752596
6540.644135
6351.363267
7291.279644
6224.208338
5645.551615
5579.260487
5861.735225
5273.071959
4471.325366
3306.276188
4449.863502
4586.026576
4820.792801
4036.56918
4234.844816
3415.825687
4713.399708
4854.56302
4558.951859
5739.92604
5333.1081
5351.356371
5093.699965
4809.859483
4410.290643
4734.035332
68652.50267
31084.51654
20774.94077
13967.75868
11545.06576
8089.609036
6959.600104
6540.079956
10913.5821
11759.8758
9831.50674
7907.89351
12596.6875
8828.708715
8986.532012
5049.577375
5520.989822
7346.701717
6070.754218
4580.998567
5036.442597
4758.705392
4794.180144
5614.637675
5217.319427
5468.644466
6165.020502
5149.351697
5286.05877
4641.837359
4629.226273
4746.157069
4569.987633
6443.135577
6247.904013
5687.435649
5577.520239
4475.003392
4711.752994
4578.649894
4423.380324
4524.243506
44500.06413
21327.02317
20104.46808
13922.19107
5733.9903
6372.547396
9941.300209
12742.01973
8427.697284
8887.193424
7742.36631
8639.769521
8845.371394
8566.64907
7450.70906
7474.333314
6279.589405
8442.354852
7765.374803
6914.385718
4590.819609
5385.272386
5020.233905
5324.03986
4653.822933
4094.492038
4527.538709
5312.842793
5610.70975
4351.504894
4799.300516
4776.496233
4633.52982
6001.558529
5350.442521
4873.790198
5387.408181
5082.478242
4809.689562
5085.822782
5157.589407
4111.721935
35531.66702
23427.41218
14168.26746
12320.06631
16258.78318
8078.637191
12106.14151
10165.19027
9184.043445
8389.916968
10929.31409
9596.233283
8506.07107
10047.61208
9016.481945
8430.654408
8499.325498
6318.234443
8532.215297
6488.572521
6115.289954
4414.936301
5684.381018
4930.428846
6325.190703
6509.588861
5855.195999
4848.166027
4671.086135
5153.147713
5655.091353
5296.688459
4481.067112
5297.767009
5431.987842
5818.30794
4958.213908
5556.738338
6329.706182
5197.175427
4701.027603
6103.781501
8387.234229
23721.69504
35751.06052
19038.52569
16172.88255
19999.95427
17394.70662
20832.327
14349.12542
13603.38937
10399.2515
9126.462668
9100.396683
8700.081705
8914.222128
6262.003351
6058.875866
4862.151213
5077.237113
4851.043948
4674.473067
5953.288222
6176.935197
5882.995611
5151.506655
5237.454564
4357.380034
4488.681801
5050.73296
6243.059793
6552.022823
8996.845956
6730.306473
5292.632641
5474.393381
3626.223791
4562.608954
4495.37179
4561.764698
4323.086946
4024.583952
4097.076711
63237.21947
30584.21949
13395.7343
9227.492643
7124.635526
11482.7806
10551.75094
9576.856761
5642.931209
8218.040383
8148.004237
3913.357214
4704.750694
3655.579646
4691.593769
4726.957898
3815.226705
4504.977746
5364.176128
5234.879901
4694.801079
4348.006078
4448.891718
4682.781534
4744.016271
3532.821121
4711.562474
5639.616984
6447.03939
5033.143552
4611.862216
4851.788319
5078.429997
5257.969418
5690.838205
5913.87476
5633.143236
5488.006254
5205.398351
5257.689777
5288.690909
4813.958964
59071.858
16045.27431
24706.43439
10436.71065
8643.494661
8197.70842
6133.058406
9488.045476
5589.152776
8935.025744
5826.252569
6462.65828
3069.758244
5436.641847
6350.831489
4713.650849
3444.203742
3027.710298
5645.050315
5215.737949
4228.994674
4403.636678
5481.645769
4963.904412
5582.257525
4675.827012
5904.5106
5617.127027
5336.426283
4239.932699
2294.106379
3841.44192
4067.942887
4401.81655
4610.668168
4192.730102
5082.287961
4019.457784
5013.882958
5997.530106
4406.702132
5230.050797
87824.24392
21782.2222
26850.64543
11731.16608
8063.384315
5254.590245
10483.44543
8670.736656
4675.749019
9876.180724
8846.975258
8353.606728
8729.120117
9878.363485
8205.448753
6308.793682
8973.270158
4846.491437
8008.551266
8013.848105
6507.122045
6514.655027
8346.598053
6217.125177
4735.777813
5078.404049
5891.668813
6140.070591
5286.89433
3363.452426
6167.258651
6912.951032
6987.953004
4513.528236
6797.968297
6458.365912
7057.21165
6593.354141
6177.778223
5526.581009
5267.922646
5486.906725
70379.87908
0
35426.69452
33929.8345
15991.77313
10437.15364
12976.15129
12109.24522
7902.784439
4828.845107
9925.268883
4741.842709
7816.379934
8525.004964
5450.432641
7128.013439
6379.560141
6385.945775
6170.860432
7453.547641
5745.986302
5568.664686
5637.710779
6365.296779
5432.483217
5260.511932
5986.370356
6356.036025
5613.832707
5767.881121
6570.218603
5992.835788
6119.600178
6471.285767
5119.077995
7099.581126
6810.384444
6433.836482
5311.974299
7089.07701
6879.409687
6788.961476
92769.63288
26235.01563
25674.67984
9293.602862
7604.665035
6798.566604
12771.43118
9333.352889
4807.427469
3724.127842
3590.241993
5924.725423
5490.716488
4903.198943
6303.30574
3098.963691
4221.318148
5409.74973
5188.021746
4554.891077
4419.86436
4897.340406
4968.959527
4682.156662
4071.363086
4662.246002
4920.627919
4086.651229
5373.552007
4660.826852
5011.402083
4786.220722
4485.173506
4831.747396
5118.727799
5228.921604
4457.144543
4436.209475
4928.1273
4594.276727
4081.529187
4643.503765
7181.276379
29569.86565
12875.72896
9685.492304
7540.201526
14948.42235
6824.722673
6666.705371
9894.335557
8793.318707
7977.173836
5962.826783
7391.297728
6788.739293
6836.824361
5041.420904
5396.095
5788.190396
4380.847717
4003.168023
4445.226686
4291.180092
3907.165542
4581.741762
4875.22537
3546.989282
3837.945134
4239.406435
4714.935394
3909.17436
3611.015732
3692.792778
3134.88045
3177.982485
3233.584041
3424.908557
3822.135073
4486.441683
5141.181925
4799.716295
5653.187903
5171.628383
5077.096306
11026.98756
10017.70908
7706.877365
6592.569368
6087.157385
9763.701486
7098.818352
6089.683256
5554.334073
9080.319451
8613.889571
4746.397949
8749.340596
6846.208523
6277.548295
5744.32315
5730.901231
5001.798473
5585.630071
4268.624619
5656.383554
3740.583124
5196.248706
4465.675746
4437.074089
4357.716897
4708.140879
3686.826707
4320.724452
4045.297681
3742.462536
3518.119229
4344.211305
4431.737926
3701.320242
3538.018345
3114.628462
3374.719413
4109.924135
4756.37594
5497.519309
4639.174623
11158.74391
7090.270753
7452.87924
6047.295201
6405.20337
9450.901231
6648.497014
4271.070603
9677.329919
10840.61044
10428.63734
5408.391827
7363.135874
7533.364541
8626.231418
7012.046236
7459.491146
7082.618422
7538.293535
5610.534323
6175.724388
5158.223163
4169.732679
5089.948689
4496.163278
5563.022272
5197.882805
5058.14085
5570.213943
5212.616513
4776.644063
3413.169338
3828.283975
3347.393975
4768.823574
4990.045515
4948.139617
4835.11527
4782.282619
5203.684286
4714.681708
28474.70813
19665.85389
13946.29663
12817.85821
20492.23576
15048.35295
14821.75118
12436.00128
10250.37609
9717.777211
9309.265111
7516.256424
5040.512154
7366.537026
6686.334594
5661.54277
6335.728499
6252.480135
6155.817948
4344.598415
4936.274822
4718.001489
5349.838438
4121.19849
5621.822837
6207.212761
5343.64651
5200.308821
5413.617828
5236.172229
6697.410836
6803.280298
5765.331353
5212.125102
5243.984493
5269.526091
5139.894384
5636.316208
5120.417737
5170.756487
5231.305322
5064.721112
32498.5766
29511.00164
19600.00264
10555.23603
7157.542245
5456.678867
10094.84881
5580.457081
7961.645237
6519.882199
5422.098099
5448.847609
5842.628574
6883.397368
4792.204825
6071.359332
5588.896858
5905.83961
4784.067953
5649.542915
5023.638971
5663.271808
5417.658206
4481.252678
4269.207178
4653.082565
4079.180049
4069.372136
3900.331808
4425.48761
4479.230593
4418.864792
4492.192143
4539.73267
4129.984157
4475.905633
4650.057731
4424.027663
4263.879847
3785.912538
4452.137123
4762.455095
13973.41355
25439.68211
11956.18832
7728.848659
6733.267955
11860.17468
5822.922403
11025.60312
9642.873303
6902.722753
8389.542401
7677.458597
8350.647023
8270.085332
5014.746658
5840.466948
6615.175182
5489.897936
6043.317088
6660.052078
6682.811197
6375.486
6612.514495
5983.58101
4521.13849
5682.506476
4521.003429
6409.910921
4815.932448
6603.849019
5931.886365
5395.435679
5669.284769
4688.397341
5482.295448
4807.441871
4299.643483
5359.230983
5853.23988
3906.495509
5586.069942
3728.931747
32847.07973
13161.20863
12652.34673
20984.44659
8923.234084
15793.55744
9537.528748
10678.31102
7126.007394
8909.38446
7393.788109
6806.646263
5012.642266
5580.581568
6809.224662
5766.18492
5139.558846
4424.846906
4773.189243
5582.169111
5188.628131
5244.559404
4461.593607
3915.989604
4904.235637
4291.660853
4801.921449
5444.222175
4829.650855
4656.879428
4351.637877
4458.687643
5636.791061
5963.270823
6145.390758
5970.466128
6022.21866
6277.846766
5965.781444
5652.365422
5993.14015
5013.451434
297529.5051
23640.33109
11960.62334
15880.55185
14671.86242
11063.65522
8866.891025
3804.221365
4393.403355
6362.097394
7335.17001
7226.275446
7841.755113
6735.535487
6311.453153
5699.522792
5433.413624
5690.789423
5756.30758
4190.755786
5618.003875
6078.137036
4942.352916
4386.308578
6642.106894
6659.55938
6703.592286
4939.958723
6448.564368
6348.829373
5321.124113
7207.986418
5604.780929
6769.121271
6337.623588
5026.816866
5898.311172
5262.647738
5094.027968
5048.407163
5750.935751
4755.523697
12726.18457
16629.91611
19761.6115
9195.619214
9102.618193
14033.8764
9570.073081
11332.56314
9017.225881
3635.024783
3189.24524
5921.693012
5781.625555
4595.73844
4935.212201
5100.67198
4138.036598
4256.622134
4486.302719
4111.266471
4817.04288
4863.007021
4794.399479
5540.766557
4391.79848
4698.393891
4991.313556
5156.559655
4510.363055
5032.276948
4528.735949
5051.148832
5773.457114
6854.744577
6452.061674
5362.811078
5711.834452
5518.348198
5142.158965
5503.010314
5230.86124
5639.347897
65151.84912
30813.34067
9630.717385
33271.77784
18534.65637
11254.01614
13500.50538
13551.16059
12781.95664
10182.15598
9093.207569
4049.685615
5919.87561
5197.691526
8669.126062
7070.430329
7014.352674
5883.796019
6839.737076
5852.612326
8236.23184
8350.262795
6498.340081
3409.410573
6045.134901
5520.12954
5552.898392
5002.257815
5072.653495
5870.118888
4802.314163
4447.99974
3679.728432
3340.956627
4666.542565
4590.121194
6185.710691
7887.991505
7377.158547
7592.503423
7632.270801
7701.570117
0
129094.1563
30321.46294
17878.23804
16141.28414
19719.60347
15323.62415
10252.89955
8793.551867
8484.267852
7172.088757
6218.456156
7252.908755
7456.457371
7083.254004
7008.5486
4737.258092
6466.557827
7124.892362
5531.878896
5303.741691
4488.398622
4381.369998
4271.967504
4840.191132
5417.84674
6643.679924
5278.986334
5083.310277
5451.631045
4579.45836
3544.974149
3567.775804
3866.620338
3638.005365
4522.584978
4588.616241
5262.13976
4577.319841
5608.693137
5798.772107
5655.458283
10549.16595
16456.70965
22892.04362
14465.97252
15032.66203
7291.685616
5825.878959
11574.11933
9745.960909
11864.17224
6996.832061
7539.425766
7091.855814
6662.423754
6448.346008
4615.893942
5813.594466
4952.058071
5045.294283
5559.673683
5216.35185
6302.708973
6002.219155
4731.199494
6041.355028
4552.048787
5055.484598
6974.080311
6331.929172
6121.758399
5102.631698
4689.10139
4336.766512
3969.377352
5904.644674
5462.304372
5755.461841
4875.718492
5404.269795
5733.061096
5679.757411
6952.693499
3105.749469
31414.22629
27567.86955
13371.08764
8341.731249
7013.336141
6327.081153
10323.29671
9524.02871
10734.57076
11702.97353
9826.681424
8179.436867
6894.942636
6909.529889
6128.743557
5781.380904
6249.063054
6294.516295
5506.070159
5364.340398
4988.0828
5589.905856
4885.208892
5517.423929
5197.018154
4778.177607
5177.512961
5178.775246
6464.959804
4825.735754
5700.753699
6410.863466
4533.139905
6161.510679
6105.254603
7457.33787
7079.896701
6452.924388
6092.252754
6762.294678
6396.478481
2813.625062
38927.92496
18516.82214
17293.50974
14619.23575
11856.87063
10222.70045
5922.613617
11781.63383
11279.32142
4794.718629
10138.90644
7725.417683
5610.552369
6265.263656
6745.285681
4107.360396
5922.823674
5730.174369
5186.575365
5963.837214
5941.39007
5566.979501
6241.506489
6060.017949
5296.090829
4890.359364
4606.111322
5934.356497
5886.996357
4993.251861
6972.327302
6565.359112
6588.228329
4552.778303
4913.522841
5600.757597
6419.711302
6874.335354
5846.320366
6404.214635
5832.455204
13892.97662
18751.75488
14306.36385
9097.221601
7010.67109
11243.8909
8444.980123
5138.469803
4039.739226
6436.37984
6632.120059
6881.161586
6773.815222
6236.264455
6314.128227
5551.067411
6195.016241
6819.370047
8459.013256
7973.467295
7107.237937
6311.993227
7553.511734
6009.007994
6231.850479
7367.378116
6735.942011
7155.289666
5468.201511
4282.781173
4452.987392
4508.466135
4229.414628
4252.088156
4882.983194
4475.352197
5897.260056
4575.440638
6916.935473
6784.76262
6622.766909
5088.733834
19369.37658
70288.4501
23090.96039
8946.300543
6723.073849
6542.713974
4888.429248
4102.729361
3716.185784
3251.566582
4420.808689
4723.45908
5211.491568
5571.869329
5491.835505
5651.026973
5043.54716
5893.680889
5924.879124
6028.810026
5694.192051
5029.923651
4648.133936
4338.949565
4462.15952
4195.358652
3298.919322
3794.631415
3922.185554
3812.141817
4953.313412
4855.332891
4754.414894
3823.288729
5336.089125
4182.137068
5312.037724
4821.768364
5168.395285
5538.398801
5592.071623
5319.933239
4808.185732
38190.14624
10281.54311
8196.448796
7184.134421
5897.984238
6550.131304
10668.21636
10020.54193
9694.390399
5800.601981
6385.220335
5897.42237
7648.16737
6762.562859
5958.081592
6850.91693
6427.237646
6256.444501
6597.467665
7685.456384
8068.002626
7977.259449
5264.830163
5783.773988
5098.27047
4704.816661
4758.531297
5047.264469
6198.102881
6034.99894
4586.347218
6140.606794
6328.096781
5338.916426
5201.177695
4279.641944
4197.840451
4204.363154
3414.757903
4128.436071
3370.01746
13808.96762
15604.95575
12287.22455
16022.99918
4853.622942
9595.641377
8142.44692
9656.406384
10475.51383
9716.115365
4678.585993
8877.590597
7714.12287
6934.630317
5884.613009
5186.284941
5274.271518
6438.52912
5971.430035
6383.793638
5155.823342
6056.909552
6558.523574
5141.352321
4834.041946
3753.846756
6853.617081
6753.503097
7145.688809
6470.660272
5909.394651
5781.90357
5468.122345
4914.96457
5581.990499
4582.354594
5293.958349
5471.985121
6135.37058
4703.604991
6794.479204
7506.537534
7085.870466
20795.9788
10862.59996
9452.011638
8096.15926
18560.04474
11763.04939
10002.58179
7654.043038
7290.926597
7251.748481
7060.208041
6391.436956
6794.257945
7130.794653
6868.607493
6520.158124
5914.798632
5441.121753
5615.845648
6393.751956
5877.051021
5659.33194
5451.856694
3973.940997
4293.725334
4366.647941
5391.676221
5236.097178
5114.479259
3866.328499
5783.046292
4287.069336
4776.100078
4176.294756
4607.434724
5758.909987
5512.312168
3432.863726
4418.659479
4878.73968
4392.724523
6685.92168
16002.42464
28020.13896
12336.57914
11450.24279
19542.82915
14023.61615
15034.65707
16187.46058
13753.18559
10492.92368
9893.875157
6514.73011
5684.501044
7498.306974
6351.745381
5989.256137
7243.354634
7892.103742
6615.452365
6404.152235
7381.851751
5432.83048
4857.353954
6475.398842
5854.052695
6181.897935
4493.469877
6798.929617
5847.865334
5670.90473
5275.501357
5289.742861
5119.18049
5500.953269
6603.218934
5850.550297
5002.083195
5976.476192
5233.168706
6946.845149
6345.068696
32048.98904
16319.11756
17184.75413
10002.49715
10807.88908
18701.45339
8320.737389
8648.104003
14285.79141
7316.465988
7636.231652
9039.746087
8067.733402
7093.189899
6823.114614
5663.992683
4451.792623
6883.465489
6854.856036
5670.410678
4995.843451
4995.905614
4132.672625
4921.51138
5314.067932
4426.51983
3711.030143
5846.319856
5191.362041
5207.21308
5542.004286
4676.338806
4679.648924
5109.950579
4882.166188
4166.754593
3303.797537
4047.083032
4283.94138
4538.674195
4169.932264
3492.724961
12344.67035
40217.62903
20891.52452
22904.52738
29671.63688
9564.636661
8958.537212
12760.01537
9245.361791
9677.512872
8941.213816
7393.469568
6722.495933
6563.734536
6433.687065
6128.09032
4801.407944
4446.478854
5445.906673
5509.330635
5163.027081
5203.459012
4872.359024
5215.836069
4693.187417
4895.839136
4555.828741
4894.214885
4404.655425
5665.338836
5636.740515
5154.393292
4365.475436
5030.309885
4888.035319
4644.556014
4723.939607
3050.241832
3706.50486
4355.688829
4462.322128
4236.318829
78390.89941
19939.77897
15255.81172
9234.292313
17915.49879
7285.002814
9042.185404
9284.216621
10463.1639
8555.591045
9944.484829
8622.347658
9093.679477
9670.801583
7994.069498
7165.304202
9949.673627
7969.476331
8662.911658
7660.240857
5801.868022
6016.843876
6674.574682
7554.33826
7010.928048
7352.937616
7601.236083
6677.222771
7210.439966
5475.945347
7625.386432
6574.753322
6956.983427
6855.698913
6742.095602
4930.290013
4598.00484
3550.04212
5673.725809
5534.261562
4424.198049
4631.18971
56266.32996
32102.73193
58778.37856
32105.89785
11429.64316
9170.21904
7789.271496
10141.70729
13184.89616
8666.37238
7880.02638
6587.076637
7487.442983
4620.623492
3451.695106
4783.285437
4456.018054
5577.79165
4409.750053
5508.880737
6052.463257
6688.445041
6588.870355
6198.365577
5862.372471
5798.013914
6627.230071
6365.799383
5989.104752
4617.798491
5206.92331
5239.285985
5041.20697
4179.830733
4743.396209
4644.118347
5597.42582
5322.78505
3890.677513
4025.888362
3958.092535
4500.661194
13418.1158
28655.68178
9643.050332
6066.514977
5375.367745
7191.34269
8261.791685
6632.148972
8416.971069
6354.355479
7442.731461
5765.091687
6407.160561
5454.395038
5015.948791
4646.001496
5641.923555
5600.827549
5022.001073
6143.354181
4525.840292
4498.00641
3413.482003
4996.006621
4220.463494
4317.172407
4530.780045
4747.30822
4361.812192
4035.260458
4524.902877
4208.796517
4852.604058
3989.393238
4291.344431
3712.347823
4116.068082
4716.348847
4723.759367
5560.680284
5696.347273
4918.880303
5779.387756
15477.81213
13288.63478
9734.804719
9848.684534
16520.14604
8137.125507
10088.47114
12716.20842
11302.75765
8653.31222
9028.291971
8308.874409
11189.0655
10854.01076
7959.002131
8212.870263
5694.816894
5691.530742
6983.099386
6394.672367
4585.304653
5207.666375
4804.849499
5309.722757
4783.552574
4087.077292
5752.438956
4368.674983
4242.517395
4292.157804
4285.095848
4447.647706
3788.517753
3485.282388
3835.875834
5752.421398
5455.979284
5038.308018
5352.443384
5698.924418
5306.964974
86231.31812
0
20722.20034
19323.46533
13180.65992
8378.746892
12382.28948
6085.495248
12076.07404
12003.38481
11681.10153
9144.531987
8001.120544
6203.200012
5986.015962
5185.869348
5709.444208
5761.437158
5721.483059
4706.283273
5070.260423
4431.324416
2878.680755
4952.942762
4432.566168
4617.536658
3671.494779
4562.327778
4685.652403
4605.19512
4036.815217
3282.612037
3454.667015
4626.045237
4963.379747
4712.343087
4744.836072
4933.487973
5056.260433
5338.20881
4711.948074
4149.62082
82337.64535
22346.10511
17548.41198
12006.00919
16655.84227
8541.301178
9695.90373
9570.428322
7512.626941
8982.120204
5628.577783
9137.523789
6472.523068
6958.887954
5611.015344
5990.738136
6585.754202
7311.841915
6760.016214
7335.512233
6015.765633
6003.509109
5288.296182
5156.412076
5210.860867
6257.677017
6142.134626
6708.310975
6365.887687
5968.848431
5535.311323
5261.462519
4731.660039
3995.174063
3978.992031
4104.033252
5113.398779
4590.256771
4655.07352
5133.722899
4729.666724
5244.969994
34982.93044
14101.26322
11035.61649
7980.740441
6873.90539
10315.76769
9426.585463
6740.300143
6460.417295
5469.767186
6448.866768
6977.270661
7714.125681
8124.56002
6568.74693
7930.553939
8359.068247
7609.666941
8929.782535
7788.183478
8454.814362
9003.433613
7974.308479
8187.943535
8324.511715
6338.424733
7036.144755
8011.182381
7195.462706
6524.955592
6996.532144
6414.311713
4999.670162
4935.53522
6246.274517
5796.563096
4786.317202
6197.172521
7490.074114
5894.953446
5872.074966
3159.194257
0
25365.32064
16434.51263
12259.46978
24686.96789
26329.25918
17136.47964
13635.65193
5261.578176
10844.00151
8752.510982
9229.454405
8366.401938
8661.424756
4781.059251
7553.41584
6103.770551
3865.81748
5793.268456
5714.82898
6518.381926
7518.598059
5930.362065
6303.137952
5029.071927
3958.325486
3595.437312
2447.073205
3383.062363
4703.742299
2513.879634
3660.164119
3662.010603
3155.218387
4362.123556
4411.418599
5445.145399
3574.382806
4205.667211
4205.048143
3983.943891
4029.427418
3253.412154
2590.842617
4861.020273
4443.707867
4268.20756
11073.22217
16795.62493
9746.012588
4701.4583
3200.313451
6549.484498
5125.878181
3013.551931
6956.84832
5633.560532
5732.809095
4627.359286
5531.373669
4901.943795
4100.844367
3903.298295
4270.449075
4006.699558
3130.021384
3287.143058
2670.086091
2099.170587
3110.418905
3224.035485
2549.502609
2871.951664
3033.696762
3254.414237
3193.873025
3154.732822
2964.259439
3138.947741
2782.974835
2520.465844
2744.866041
2416.350904
2424.264441
7653.832866
7089.290081
3319.856441
6008.080637
4214.91566
2649.447185
3437.041585
2152.440545
2793.176402
1468.045669
5376.474976
4076.193395
2524.733365
4990.859312
5741.566834
3491.152367
3084.505935
4344.632802
3388.596414
2439.886276
3019.173906
2772.388213
3452.663049
3081.682518
3125.443516
2043.334578
2856.753897
2058.418008
3300.851217
3177.322654
3064.985995
3282.940825
2825.273062
2705.494919
2921.393654
2795.624375
3221.282793
3529.787917
3313.089691
2428.62086
2941.878308
2952.596891
5615.816295
7800.868976
5857.97276
6893.831311
7094.364797
5800.488452
1783.294707
3063.576349
2002.473294
1744.56861
2565.676282
2578.191658
1562.243537
3222.048828
5095.874722
3769.051127
2321.671184
1911.515164
2723.37536
2897.667044
2955.423388
2505.204296
2389.887427
2043.718776
2191.476413
3149.959201
2859.601422
2629.20402
2162.739384
2450.159492
2466.979407
3224.074937
3775.574182
3559.81703
3521.803726
3418.808971
2950.009115
3107.056017
2995.868661
2641.942605
2807.777834
3052.960512
5429.388115
9384.583271
7151.281361
7664.703954
5635.133592
9809.743281
4664.573612
3507.946645
1729.254648
2301.217372
3689.487977
2653.273964
2748.520711
1839.412921
2301.513929
2089.738657
1745.23373
1885.633326
3288.508536
2759.751843
2925.247002
2247.706518
2509.515617
1887.412026
3814.426644
2067.510493
2921.665492
3131.25114
2861.362825
2695.683413
2498.338343
2638.182518
2896.77724
3382.618847
2974.214867
3125.224146
3024.690641
3066.065751
3271.733063
2651.196646
2848.409323
3122.366411
6329.573273
3013.33762
4464.783329
5420.991232
4190.406508
3404.040348
1939.761026
4296.393534
2154.707885
2144.878143
1907.760712
2778.564488
3869.600212
2071.64508
3028.45729
1416.660611
1350.108344
1510.8975
2363.514116
2460.893124
2289.30749
1983.403622
2943.489876
2336.860362
4008.34751
3250.957741
2751.061839
3876.603823
4280.853992
4620.179059
3306.057306
4104.638186
4236.211675
3842.777436
4659.877786
4243.594358
2863.414885
2841.967989
3249.296159
3813.822239
3726.23234
3934.8263
5041.947453
3667.786138
4366.887712
3167.406176
4059.678211
5942.987973
1747.839513
4851.125784
1779.317167
2466.456246
2495.898949
1434.240235
1300.058706
1489.417562
1369.522124
1039.920277
724.3278264
917.756425
1645.880545
1734.620058
3130.332825
2893.167877
2886.606473
1903.288245
1715.261873
5107.769921
3537.340952
3467.472563
4488.725955
6277.269972
3996.324553
6167.996953
4576.764406
5565.468394
5961.450404
4660.305196
3187.57097
4240.636515
3988.710799
3631.745821
3728.925477
3480.681336
4125.914281
2650.977939
2417.192231
3214.380991
2190.241359
3219.977414
1254.05567
3785.790881
1743.049065
2243.257316
1932.537293
1710.769904
1304.281328
1235.558153
892.6846915
1055.280703
296.6567511
16060.99746
16005.96098
5157.710015
5546.826751
1809.561709
7292.41399
6054.574903
4975.400309
5505.151531
5240.693767
4925.373087
4499.443627
3815.115821
5002.681466
5372.732769
5074.824611
4086.432084
8666.636958
3861.95225
2748.417063
2160.378996
1920.731184
2647.875705
1867.889851
1512.230679
1214.030852
855.8467493
967.4292365
944.574982
673.8838666
651.2641379
365.9294914
208223.8215
3593.63179
4899.801856
8442.793206
6270.405794
13152.88991
6371.017634
7221.498988
4641.34973
5892.921947
5325.576265
5160.836988
4795.468869
4432.46552
4213.739875
2983.634764
11902.38583
2860.506668
2058.661242
2522.961774
2409.299068
1408.014608
825.1618835
1217.62346
1294.37897
699.5760713
661.0046444
320.5523181
2.274255148
2.473131387
2.461439724
2.486231113
2.499990102
2.433651762
2.355567431
2.279421099
12163.90645
6133.636237
20810.00711
12785.58857
13109.28423
13663.71538
9824.772933
8395.309181
8608.257491
6704.749193
6224.348336
6124.09991
6115.753669
1877.99845
2260.490326
2441.018585
2474.725161
2300.037053
1919.760129
1816.624604
1260.539523
1003.054584
633.8940425
382.1223638
2.336644519
2.541858063
2.686878466
2.872660158
2.885325464
2.933422723
2.902078455
2.917456451
2.831322207
2.626890897
2.43125161
2.312271599
0
27104.7582
72047.76638
28168.66105
14100.90776
15013.54677
8408.454343
9420.310701
10191.4033
8008.834364
6367.02474
2809.574357
3055.068869
4012.229917
2018.848923
2293.610642
1512.418657
791.0767127
798.7196042
523.9679109
290.9808341
2.20837644
2.515013102
2.770214574
3.07822487
3.165791563
3.30532604
3.395807728
3.410291435
3.357459671
3.381309443
3.262188784
3.162112159
2.88130143
2.711879328
2.488439304
2.23493819
23297.58968
13966.56707
11791.78584
9370.771377
8443.803385
7345.9844
12130.00579
10148.44116
11879.51189
8105.553036
7636.363359
3496.328947
2807.456499
1711.694871
1659.581556
1660.055741
655.1912194
590.5012808
417.6976218
2.327993336
2.676876069
3.028923584
3.238514915
3.428491159
3.559240596
3.818808244
3.835273275
3.786567289
3.833011599
3.755235904
3.72835812
3.724493277
3.479793935
3.109757271
2.908947535
2.553872348
2.307164852
0
0
36983.38119
16017.99181
19437.38435
8464.437364
9037.240674
8313.524808
6930.344192
5803.982189
1717.761514
2591.135623
1803.443472
2469.370057
1213.094014
623.4693991
426.9260218
318.4331267
2.394012223
2.794850109
3.066046135
3.41548964
3.649748772
3.747387062
3.799170248
4.029352847
3.914511844
3.849374337
4.005653762
3.944869042
3.931090497
3.878659786
3.813442951
3.513465786
3.321781339
2.92974148
2.721903334
2.321274582
33358.13453
20676.45936
17199.21329
10544.30028
10425.33309
12360.24244
6143.740079
6267.918565
7478.272452
4950.202124
3560.953208
2595.792204
4485.443572
2213.802654
1583.620127
783.1621098
368.2510484
2.346575028
2.612487164
3.019678113
3.467871858
3.673513854
3.930219631
4.019086264
3.903361556
3.881124264
3.595985052
3.62787369
3.657255051
3.676388816
3.777211226
3.990561763
3.892087579
3.865711294
3.598745114
3.344810483
2.969280025
2.530233937
2.194430458
73425.22275
28223.53061
12945.19708
7668.556229
13153.83808
10840.74196
7094.280457
10750.34376
3123.347321
3277.826799
2824.957115
1840.461195
1707.419372
1302.089718
864.884082
375.0759313
2.493883648
2.930308565
3.320642409
3.558061024
3.96288269
4.024184694
3.72928753
3.433880697
3.154326495
2.914389453
2.830008103
2.807255276
2.972789821
3.163806584
3.505108482
3.831608582
3.919039923
3.826425306
3.698427621
3.243360127
2.945764872
2.400376702
0
85463.31434
27633.79684
14667.2067
9008.448661
9600.533895
15012.45962
12067.20787
1807.919693
1865.223173
1692.525543
1721.102954
1638.395685
1271.556877
614.0142505
2.323560379
2.778170519
3.209035529
3.612836306
3.860877148
3.954750619
3.69993043
3.328011668
2.814624849
2.334566604
2.086096528
1.949927947
1.946126954
2.113780472
2.36090813
2.747342417
3.333850718
3.716491453
3.984384015
3.9550103
3.603043863
3.146119105
2.658033094
2.255937331
210775.5018
62999.61993
15595.49539
11828.91144
6005.242432
5857.277509
4674.168757
8798.850549
2085.356623
1771.525913
1416.997495
964.9713629
597.6573931
363.1880703
2.430063518
2.977470774
3.497134465
3.884757887
3.995651362
3.804408263
3.3273802
2.647850523
2.092020027
1.663864215
1.398678924
1.278574826
1.272261918
1.383000678
1.647344147
2.029730053
2.623807728
3.392158144
3.842249661
4.025131637
3.81606311
3.38984782
2.947713861
2.4808809
47023.70938
13282.84147
10275.16575
8247.095802
13636.69782
9369.681391
4378.121703
2979.246674
2288.65377
1294.05075
2258.511182
980.2970629
441.2778609
2.284895313
2.637638892
3.075973176
3.60483997
4.014334574
3.978393388
3.561530837
2.809009436
2.090889561
1.5292814
1.157533275
0.9486175388
0.8555394062
0.8503451338
0.9431711557
1.157353
1.496724456
2.089217053
2.846988309
3.558103781
3.99777563
3.845082867
3.535260201
3.125605238
2.652515023
2.21329624
22982.7766
27784.92685
11177.96747
7229.267627
5720.610381
6084.782081
3733.137417
4516.551677
2056.25199
2173.760662
1050.482427
488.1229369
2.393476908
2.826726118