/*--------------------------------*- C++ -*----------------------------------*\
| =========                 |                                                 |
| \\      /  F ield         | OpenFOAM: The Open Source CFD Toolbox           |
|  \\    /   O peration     | Version:  v1706                                 |
|   \\  /    A nd           | Web:      www.OpenFOAM.com                      |
|    \\/     M anipulation  |                                                 |
\*---------------------------------------------------------------------------*/
FoamFile
{
    version     2.0;
    format      ascii;
    class       volScalarField;
    location    "3.989";
    object      p_mixture;
}
// * * * * * * * * * * * * * * * * * * * * * * * * * * * * * * * * * * * * * //

dimensions      [1 -1 -2 0 0 0 0];


internalField   nonuniform List<scalar> 
50792
(
5.720796389e-05
0.0001043975851
0.0001951627598
0.0001077323825
0.0001564438982
0.0002249048079
0.0002511198856
0.0001875535293
0.0002401776016
0.0001563942683
0.0002786464122
0.0001651892265
0.0003605201117
0.0002628351584
0.0002535447137
0.000394316342
0.0001271907205
0.0001129731817
0.0001656867362
0.0001052573225
0.0002748049468
0.0002731308674
0.0001170046025
0.0001607626181
0.0002948595859
4.381588504e-05
0.000333023692
0.0004215863407
0.0001928865783
0.0002347478944
0.0003486506339
0.0001754805286
9.04124545e-05
0.0001833876054
0.0002297668372
0.0001846305991
0.0002958711449
0.0001841555668
0.0001823818532
0.0002528711933
0.0003119475339
0.0003164262397
4.490399231e-05
9.952080881e-07
1.338736963e-06
3.946588259e-05
0.0001254808418
0.0001230341742
0.0001028795354
0.0001541445137
0.0001012946813
0.0001530839391
9.492659106e-05
0.0001274785392
0.0001137418844
0.0002027063774
0.000257936923
0.0002294373404
0.000127074789
0.000176098425
0.0001994092726
0.0001990734978
0.0001918651602
0.0002149339793
0.0002724702785
0.0002916110741
0.0003727014259
0.00024497029
0.0002411902887
0.0003111466193
0.0003039936214
0.0003454715134
0.0003688596165
0.0003593967512
0.0003070890248
0.0002234368458
0.0002200298703
0.000374591313
0.0002604781622
0.0004540497924
0.0003914104123
0.0003702984335
0.0001293968522
8.913360847e-05
3.905285853e-05
6.262983407e-07
2.211794223e-05
4.070129518e-05
4.976653032e-05
9.442618661e-05
0.0002225644891
6.639381315e-05
6.74471901e-05
0.0001804997676
0.0001944375386
5.637953464e-05
0.0002579894077
0.0001753633835
0.0002182882905
8.202615752e-05
0.0001739681168
0.0003208550057
0.0003442012195
0.0003037121064
0.0002862173458
0.0002101221157
0.0003248308503
0.0003582685728
0.000200820181
0.0003059887708
0.0002909389938
0.0001242482684
0.0003445690367
0.0003398358158
0.0002698235329
0.0003269423047
0.0002476228442
0.000342631737
0.0003705905214
0.0003120583933
0.000334231805
0.0004272385784
0.000432820241
0.0003109251912
0.0002956559322
0.0002486809726
3.431269534e-05
5.931808261e-05
4.204191328e-05
4.625338939e-05
8.069246347e-05
9.559864334e-06
6.523010583e-05
4.032136474e-05
9.666402074e-05
0.0001726666795
0.0002833078113
0.0002935164056
0.0003020905747
0.0001319136042
0.0002267881518
0.0003322280304
0.0003499310887
0.0002979427694
0.0002307624731
0.0004704208153
0.00046082163
0.000422418414
0.0002320293605
0.0004033479596
0.0004729558561
0.0003212814216
0.0003164887772
0.0003054541281
0.0004003338855
0.0004572491421
0.0003631684428
0.0003973461369
0.0003204501107
0.0002568067161
0.0003223061846
0.0002534000963
0.000249370743
0.0002937000866
0.0004503360386
0.0002805947229
0.0002213883009
0.000195922351
4.410834864e-05
6.847062507e-05
3.005092152e-05
6.009078255e-05
3.000273676e-05
4.764779633e-05
0.0002239744936
8.710286961e-05
0.0001415770875
0.0001136781988
0.0001400489781
3.594117452e-05
0.0001704398775
0.0001202427806
0.0002089493874
0.0002220207948
0.000278256449
0.0003045756908
0.0003537743916
0.0003739546511
0.0003108933442
0.0005320320608
0.0004859245522
0.0003590793177
0.0004583735207
0.0004531350865
0.0003654917076
0.0002722907342
0.000317848946
0.0004581966107
0.0004498602146
0.0002562624897
0.0003779742555
0.0002404024216
0.0002860806681
0.0003072516281
0.0002809487857
0.0004006184945
0.0004443984046
0.0002720218937
0.0003427684253
0.0002237925282
5.398892504e-05
1.4961394e-05
9.56572886e-05
4.890547876e-05
8.159288124e-05
4.972045868e-05
5.551216895e-05
0.0001347371315
0.0001431408587
6.307606746e-05
7.541826884e-05
0.0002599058251
0.0001343696172
0.000199651379
0.0001336253717
0.0001810222821
0.0001563767778
0.0001074009499
0.0003175138238
0.0003166806763
0.0002973154928
0.0004310707819
0.0004743171119
0.0004448620548
0.0002226436328
0.000284364828
0.0002672694113
0.0003967806481
0.0004448987446
0.0002181142819
0.000458677086
0.0002599559982
0.0003758876581
0.0003081420949
0.000290265798
0.0004022988009
0.0002518311187
0.0002830374951
0.0002562627494
0.0003004854127
0.0003043676701
0.0001194391159
3.319705838e-05
5.186976919e-07
2.255709208e-05
1.291606e-06
1.59121602e-06
1.1369461e-05
0.0001741583877
0.0001509534411
0.0001222810127
8.853955511e-05
0.000120387597
0.0001461968343
0.0002124465115
0.0001197070888
8.178687603e-05
6.661682948e-05
0.0002312209187
0.0001795116154
0.0002084985384
0.0003556488363
0.0003218809611
0.0004827042252
0.0004511980257
0.0002911028167
0.0004241185258
0.0004433911231
0.0003215371339
0.0003783325644
0.0002199457724
0.000264188659
0.0004370782084
0.0003700263791
0.000325556493
0.0002471940018
0.0003250457351
0.0001787130477
0.0002105725596
0.000342389831
0.0003060532738
0.0004366830105
0.0003665197715
7.855105715e-05
4.458667426e-05
2.492260345e-05
1.01135697e-06
2.447688421e-06
1.96661562e-06
5.118659111e-05
0.0001597837506
0.000125756327
7.902971556e-05
0.0001856930093
0.0001308474673
6.967982291e-05
5.836521159e-05
0.0001435255033
0.0001180496422
0.0002607763942
0.0003614040587
0.0002897481702
0.00025724398
0.0003224284744
0.0001914570325
0.0002968264329
0.0003410073692
0.0002342905203
0.0003773902307
0.0004274153723
0.0004161005104
0.0002840505579
0.0003315867826
0.0003424019527
0.0003850604032
0.0003147733321
0.0002384906027
0.0002878281077
0.0002910440532
0.0001932167979
0.0004509071825
0.0004788476346
0.0004085502694
0.0002814007049
0.0002746461316
0.0002196944138
4.275467737e-05
6.448699025e-05
0.0001152359015
8.634983087e-05
0.0001236211412
0.0001294987589
7.861651093e-05
0.0001544391327
0.000149165299
0.0001475298715
0.0001052832559
0.000148372651
6.661769867e-05
0.0001987109492
0.0001800884964
0.0002187417031
0.0002201174901
0.0001538211681
0.0002643390725
0.0003045237919
0.000203383198
0.0004424119272
0.0002029077507
0.000267639624
0.0003639534686
0.0004258608829
0.0002806836514
0.0003604052069
0.0003169775969
0.0004709953307
0.0005151382245
0.0004346626201
0.0004520598407
0.0002833272381
0.0003960666964
0.000261789665
0.0005114482362
0.0005353192424
0.0003952914328
0.0004637802456
0.0003560444438
9.666507487e-05
4.898769305e-05
5.550821093e-07
7.596132832e-05
2.171475215e-05
0.0001519600843
0.0001344718828
8.416446233e-05
0.0001259665882
0.0001797103985
0.0001949351089
0.0001565995531
0.000308379159
0.000189983818
0.0002080914997
0.0002381735163
0.0002834125439
0.0001910955423
0.000257260383
0.0003923016091
0.0003968805837
0.0004658305479
0.0003021968369
0.0004072544918
0.0002587384341
0.0002542632935
0.0001489139479
0.0003182984537
0.0003211281835
0.000373608426
0.0005062472656
0.0002858259976
0.000366304918
0.000161602224
0.0004128600986
0.0002212126573
0.0003103838196
0.0004398553522
0.0004848096577
0.0003799958735
0.000431450201
0.000405386511
0.0002169088976
6.146994043e-05
5.722862318e-07
4.904797102e-05
5.59233642e-05
0.0001346685367
0.0001452654143
2.808509735e-05
0.000149462231
0.0002805984833
0.0002027268673
0.0002347640403
0.0001309405271
0.0002185419413
0.0001052299577
0.0002896790959
0.0002413640644
0.0002468722144
0.0002073992023
0.0001491833127
0.0002919591953
0.0002717023763
0.0004539347247
0.0003822217372
0.000344224823
0.0002607444417
0.0002355575742
0.0002575689668
0.0003794512977
0.0003258655114
0.0003840608214
0.0003737954981
0.0002200432919
0.0003592679803
0.0003089780467
0.0004176887771
0.0002583328231
0.0003703835484
0.0003925791645
0.0004461794307
0.0002969891654
0.0003460673765
9.307887493e-05
5.178404203e-05
7.430092613e-05
5.611701612e-05
5.820923751e-05
6.115504494e-05
0.0001730039069
3.509722708e-05
0.0001573825608
0.0002213096716
0.0001676208486
0.0001780411936
0.0003488346994
0.0002351294937
0.000267520275
0.0001502309095
0.0001525680864
0.0002012618667
0.000235462727
0.000416872455
0.0003593364804
0.0002952974577
0.0003596286395
0.0003027142881
0.0002238389311
0.0001824852293
0.0002759885584
0.0003342632421
0.0003294084394
0.0004503251112
0.0003742803215
0.0004579575006
0.0003737921251
0.0004273729332
0.0002563799825
0.0002474308315
0.0003058224417
0.0002934521004
0.0003969537372
0.0003555908162
0.0003467742475
0.0002180198091
8.93605516e-05
5.303766471e-05
4.468165358e-05
1.078778805e-06
7.31604172e-06
4.747763218e-05
0.0001265137153
0.0001792855006
8.45279126e-05
0.0001588406015
0.0001559302368
4.188761508e-05
0.0002906351278
0.0002183382633
0.0001790083164
0.000117066541
6.430246687e-05
0.0002050644018
0.0001866494543
0.0003298436836
0.0004147732087
0.0002886096666
0.0001707959109
0.0004098596275
0.0002744459578
0.0003077224818
0.0002148365286
0.0002747476428
0.0003771658707
0.0004997118307
0.0004445225507
0.0003271819168
0.0003490210122
0.0004527408509
0.0004113213278
0.0003724955214
0.000396163164
0.0004559136032
0.0003276459808
0.0003001718197
0.0003359815245
0.0003092831535
0.0001076819864
5.326311763e-05
0.0001195347267
7.423676288e-05
7.912995925e-05
0.0001425813651
0.0001746009385
0.0001596511433
0.0002760653452
0.0002285976603
0.0001857240599
0.0001490548766
0.0002627812856
7.949830316e-05
0.0002830346144
0.0002237883589
0.0001683345632
0.0001259733207
0.0002152769363
0.0002557068254
0.0001683646242
0.0002019588141
0.0003027690398
0.0003581378312
0.0004508576739
0.0004423107335
0.0004150964284
0.0004204986417
0.0004980617569
0.0004885759817
0.0003532393938
0.0003786141229
0.0004549980201
0.0004379803475
0.0002686925651
0.0002995749446
0.0005615573835
0.00049593868
0.000365886838
0.0004084018801
0.000302852886
0.0003165093378
0.0001478310588
7.365996691e-05
1.796578903e-05
6.295475536e-05
9.067447416e-05
7.924129322e-05
9.165871317e-05
0.000194267653
0.000200441903
0.0001618754253
0.0002267244461
0.000192853959
0.0001802153852
0.0001064535874
0.0001925706107
0.0002073146519
0.0002056104312
8.616348197e-05
0.0002400697662
0.0003433120737
0.0002762352722
0.0001449496766
0.000276787023
0.0003449912365
0.0004275588628
0.0003793898268
0.0004418217936
0.0002307191265
0.0003054452765
0.0003663014284
0.0004968333384
0.0004185546837
0.000388640335
0.0004330435249
0.0003712607653
0.0005110918502
0.0003842882883
0.0004474518687
0.000489097859
0.0004451477268
0.000282440689
0.0002771258252
9.314253425e-05
4.465084433e-05
4.874667726e-07
9.03147717e-07
1.472149655e-05
0.0001064945847
0.0001106520835
9.492121027e-05
0.0001712350521
0.0001729683682
0.0002358853602
0.0001970813641
0.0001229029948
0.0001351246122
0.0002669331697
0.0001931508437
0.0002589735876
0.0003648856387
0.000325672724
0.0002815032291
0.000440900927
0.0002918650051
0.0003720814883
0.0002541858985
0.0003716010023
0.0002788881918
0.0002900350835
0.0004708683485
0.0004065599227
0.0003061710491
0.0004169894094
0.0003052550008
0.0002561442574
0.0003493786335
0.0003245412502
0.0004330165606
0.0002387686059
0.000406228003
0.0002602226738
0.0003139388118
0.0002718110467
0.0002726260486
0.0002218982946
5.438062613e-05
5.78893221e-07
9.125928451e-07
8.569123771e-06
6.437605948e-05
2.11562944e-06
7.809810127e-05
0.0001786868322
0.0001595972441
0.0002551398257
3.29525474e-05
0.0001088422747
0.0002608184848
0.0001720288163
0.0002744807904
0.0002338655054
0.000192088957
0.0002694614518
0.0004622727167
0.0003186523155
0.0002130122655
0.0002298681409
0.0002692873597
0.0003669870102
0.0003697779111
0.0002388186562
0.0004434191381
0.0003288227916
0.000415985659
0.0003575462396
0.000329105968
0.0003157001931
0.0003928220146
0.0004203368108
0.0005291903895
0.0004880150919
0.0004672686244
0.0003404770361
0.0003488648609
0.0004832345367
0.0003066422435
8.256865306e-05
5.261051178e-05
3.018730105e-05
6.026691337e-06
1.363937468e-06
5.022730467e-05
3.077534189e-05
8.691550929e-05
8.761260865e-05
0.0002132443113
0.0001556954921
0.0001237717938
0.0001528224535
0.0001709067571
0.000144027423
0.0001812997685
0.0003002455889
0.0002184011374
0.0003054270674
0.0004840374721
0.0004334663536
0.0002707506234
0.0003001807495
0.00027792782
0.0004351349641
0.0003388236047
0.0003826141344
0.0003588053674
0.0002325897725
0.0002806145792
0.0002182771142
0.0003021724034
0.0002665061726
0.0002285396691
0.0002280706135
0.0003394702792
0.0004728002624
0.000541871322
0.0003314400721
0.0003742151207
0.0003991892218
0.0002895876436
4.79931514e-05
7.25630947e-05
3.679835031e-07
5.225728374e-05
1.420023976e-05
4.21136508e-05
0.0001120389713
0.0002255539987
4.751500537e-05
0.0001067222592
0.0001648282141
0.0002371081962
0.0001460359298
0.0002506007856
0.0002978827954
0.0003438881638
0.0002191032839
0.0002825849513
0.0003481703225
0.0003578966275
0.0003821253008
0.0002811893361
0.0002935440034
0.0003171033148
0.00052510082
0.0003685408761
0.0002944347677
0.0004881539045
0.0003875474434
0.0003957900892
0.0004554192476
0.000425961018
0.0005028896677
0.0003205662108
0.0003203847958
0.0003832765963
0.0004119194469
0.0005238693375
0.0003742811502
0.0002603094966
0.0002600974139
0.0002430890436
6.868077068e-05
4.830719476e-05
1.177384322e-05
2.852037887e-05
7.582308723e-05
0.000124868889
0.0001189277005
0.000138155315
6.990415438e-05
5.648400366e-05
0.0002895686661
0.0003358684921
0.0001615409436
0.0002117875729
0.0002496897519
0.0002093076003
0.0003105696067
0.0002887629546
0.0003962556015
0.0001455254271
0.0004060283654
0.0003522348885
0.0003224508455
0.0004189092559
0.0005510012722
0.0004479225426
0.0004347231732
0.0004821803424
0.0004880290715
0.0003632962763
0.0003596787428
0.000348976149
0.000287379054
0.0003104753106
0.0004065402965
0.0002645561596
0.000167118773
0.0003521430082
0.0003307080297
0.0003465823512
0.0002460873481
0.0002570701692
0.0001823990901
8.117840757e-05
7.710199897e-07
6.681227594e-05
6.864814642e-05
0.000154066573
7.910777834e-05
8.642066044e-05
0.0001692847034
0.0002341640498
0.0002311577482
0.0001294416103
0.0002968223183
0.0001657780879
0.000475624673
0.0002540584682
0.0003040005264
0.0004956018788
0.0004329190989
0.0003771473579
0.0004463868305
0.0005588538206
0.000456883198
0.0004339072859
0.0003970153356
0.0004271045198
0.0003333227046
0.0004478602427
0.0004331348724
0.0004726594589
0.0003722182529
0.0004143441889
0.0003429883426
0.0003786911222
0.0003064852466
0.000296286649
0.0003515767602
0.0002502307385
0.0003831072211
0.0002346558337
0.0001571584007
0.000311097797
0.0001877940196
5.702072838e-05
5.845671775e-07
0.0001050613858
5.870956747e-05
9.616278928e-05
0.0001404898153
0.0001522509185
8.606887641e-05
8.472772523e-05
0.0001162638698
0.0001421306689
0.0001847726515
0.0002562948472
0.0002698802798
0.0004361871935
0.0003314341989
0.0003161705287
0.0004415720509
0.000257985527
0.0003304883198
0.0003303700099
0.0003175693578
0.0004374973974
0.0005087739652
0.0003234192724
0.0003998528513
0.0004177235841
0.0003584528768
0.0002776584565
0.0003139493415
0.00041166185
0.0004020005243
0.0004524543455
0.0004721766233
0.000323162422
0.00047259694
0.0003562104589
0.0004113457275
0.000255950878
0.0003403050619
0.000260103661
0.0001000909783
3.668906429e-05
4.672063599e-06
5.135736488e-05
1.120519019e-06
0.0001130148616
0.0001019450295
8.027728561e-05
0.0001545090918
7.723100504e-05
0.000149169679
0.000212603908
0.0001020243486
0.000132039629
0.0002819602116
0.0001859591934
0.0003185309822
0.0003219975254
0.0004028152183
0.0003341982891
0.0001593261044
0.0001845985401
0.0002581197422
0.0004111459758
0.0003153946097
0.0005139037688
0.0002591179347
0.0003523204144
0.0003192289458
0.0001872045217
0.0003293388638
0.0004198837441
0.0005906864531
0.0005634160853
0.0004068797142
0.0005233442332
0.0003390010475
0.0004987687247
0.0004788905801
0.0003811852151
0.0002799125565
0.0002166364375
0.000111015085
7.275350174e-05
9.011672245e-05
3.107091645e-05
8.638829095e-05
7.930850428e-05
2.748758484e-05
3.959654513e-05
6.33058694e-05
0.0001734788316
0.0002001761731
0.0002302583548
0.0002212246503
0.0002703339396
0.0002616870731
0.0002950035248
0.0002191271667
0.0002964504235
0.0004395207363
0.0003577770012
0.0001695714403
0.0001729196594
0.000212695693
0.0003044688159
0.00021704562
0.0004873099319
0.0004098429144
0.0004361086278
0.0002846677857
0.0002535068044
0.0001712124494
0.0002589867287
0.0004396277686
0.000454880564
0.000446856149
0.0003035181505
0.0002695605407
0.0003303214858
0.0004642833449
0.0003877545222
0.0004002718215
0.0002695032068
0.0001347220017
2.906056824e-05
4.422776045e-05
5.705347896e-05
3.457788944e-05
7.281072383e-06
2.337550828e-05
8.332848302e-05
6.387394388e-05
0.0001164425421
0.0001871278008
0.0002370371688
0.0001888351775
0.0002759486803
0.0002322409236
0.0003174613882
0.000368466957
0.0003107639901
0.0003243591779
0.0002230255236
0.0003730578972
0.000160411331
0.000258542122
0.0002823512286
0.0003036769263
0.0003413076362
0.0004161897081
0.0003478113954
0.0003392314983
0.0003756665787
0.0002857321312
0.0003807706128
0.000412835805
0.0003573128934
0.0004482117967
0.0003857259125
0.0003528043325
0.0002497780431
0.0003572795628
0.0002314186873
0.0002186687146
0.0002774371042
0.0001326325595
2.592622225e-05
2.949595695e-05
3.455223322e-05
1.614765678e-06
5.057544477e-05
0.0001150972516
0.0001944408383
0.0001260736697
0.0001345411365
0.000134235206
5.534235559e-05
0.0001353705263
0.0002922866724
0.0003578269087
0.0003844704866
0.0003851827334
0.0003894062792
0.0003288167006
0.0002002587744
0.0002902184514
0.0002404211611
0.00013845369
0.000387738748
0.0003297733336
0.0003075546374
0.0003321947261
0.0004457245162
0.0005019058841
0.0003862619054
0.0003789730524
0.0004117871938
0.000267577163
0.0004161198913
0.0003610135662
0.0004647978221
0.0003800425116
0.0001484621106
0.000264447671
0.0003268978173
0.0003340676017
0.000208717085
0.0003320527354
3.829334455e-05
2.076208907e-05
0.0001094849164
0.0001421047505
5.659648717e-05
8.341608143e-05
3.173565156e-05
4.917888109e-05
5.551556195e-05
4.963712594e-05
0.0001508583744
0.0001898682383
0.0001836402243
0.0002935983925
0.0002730101678
0.000234978775
0.0003857349214
0.0003755404873
0.0003250321129
0.000437986321
0.0003961165599
0.0002238801954
0.0002474630612
0.0002605170525
0.0003954479228
0.0002952913894
0.0003933696999
0.0003485279851
0.0004599238233
0.0003306465107
0.0004515927724
0.0004219540666
0.0004081381503
0.0004322666724
0.0003746505672
0.0003917757421
0.0003381325467
0.0003906098337
0.0002569898991
0.0002302126507
0.000121806069
0.0002425809659
5.08248471e-05
6.273500252e-05
3.993154577e-05
0.0001379705354
0.0001363431221
0.0001828156889
0.0001017526735
7.767907025e-05
8.478557328e-05
4.377646779e-05
0.00012509151
0.0002039653535
8.806343633e-05
0.0002854646684
0.0002792645877
0.0002982922191
0.000368976078
0.0003688554582
0.0002881757468
0.0003482798133
0.000450492868
0.000316890859
0.0003039527329
0.0001853412533
0.0003103180398
0.0002113545109
0.000441985261
0.0004619845833
0.0005110741948
0.0004445509991
0.0003331007656
0.0003634651434
0.0003143994693
0.0004855190432
0.0004658675464
0.0003997502046
0.000460984168
0.0002651420898
0.0004094472373
0.0003101025424
0.0002167252995
0.0001341916686
5.921365587e-05
5.774954915e-05
0.0001423171448
0.0001257525287
1.990400015e-05
3.076500045e-05
0.0001189539971
0.0001227746386
0.0001810591528
0.0001397901715
0.0001441006228
0.0002082826079
0.0002831391407
0.0002598934327
0.0002883869331
0.0002274934841
0.0002797458253
0.0004179846916
0.0003023230939
0.0004222659066
0.000359341172
0.0002434551149
0.0002651768473
0.0004077708599
0.0004361303955
0.0003759717728
0.0004579716048
0.0003704982685
0.0004542290007
0.0004178741945
0.0003123229238
0.0003748408681
0.0003596029766
0.0002173830387
0.0002083067044
0.0004056101682
0.0003111454821
0.0003013860362
0.0003315823076
0.0003696514227
0.0002942401467
0.0002673864951
6.390971897e-05
7.462765525e-05
0.0001151464185
0.0001074812917
1.677858637e-05
6.838478122e-05
0.0001128059468
0.0001802038363
0.000189467329
3.922249251e-05
0.0001399686419
0.0001617323544
0.0002630570252
0.0001783396722
0.000264525494
0.0001180223991
0.0002713574192
0.0002423823485
0.0004567791199
0.0002737971582
0.0003539495295
0.0003270077824
0.0003134048053
0.000586485734
0.0004414521373
0.0004727786947
0.0003521289971
0.0003041741174
0.0002357131469
0.0002149952632
0.0002792281976
0.0002610492339
0.0002455960047
0.0003380584549
0.0003008459578
0.0003307755706
0.0003880869651
0.0004258334034
0.000413536539
0.000425106379
0.0002485401689
0.000197052967
4.746957665e-05
6.588018276e-05
3.864976349e-05
1.521861524e-06
2.222615927e-06
6.188874613e-05
0.0002006114414
0.0001092384076
0.0002450024215
0.0001743297281
8.563495166e-05
0.0001248068824
9.573280283e-05
0.0002827268326
0.0002302295626
0.0002305995823
0.0003178120844
0.000134120232
0.0003287817441
0.0002667429129
0.000432867099
0.0003210969065
0.0003563216551
0.0002680053546
0.0004534136551
0.000301305078
0.0004149767993
0.0002992170219
0.0003648993968
0.0002769570618
0.000445037685
0.0003451253736
0.0003100146694
0.0003470020132
0.0003604768241
0.0003859462544
0.0003132692123
0.0003472632168
0.0005119607372
0.0003387920795
0.0003617438295
0.000139676568
6.605133407e-05
9.967673323e-05
6.698466701e-06
2.003271113e-06
2.545733212e-06
9.008766581e-05
9.710127126e-05
0.0001434702717
0.0001019888748
0.0001009397967
0.0001699854121
0.0001263280774
8.09293725e-05
4.111157651e-05
0.0002318576125
0.000313953748
0.0001991597181
0.0002078144866
0.0002104956977
0.0003311711589
0.0005007815226
0.0004107105984
0.0004380520769
0.0004842511496
0.0004580203187
0.0004027328071
0.0002692358313
0.0003404597341
0.0003995883929
0.000279284631
0.0003709149653
0.000443036444
0.0003360604775
0.0004025563964
0.0002460468905
0.0003620969871
0.0003612135358
0.0003859616403
0.0003049634964
0.0004015722052
0.0002474216898
0.0002089112645
6.905655667e-05
6.52881456e-05
7.004276465e-05
8.401104966e-06
8.446710613e-05
5.361003385e-05
2.405958195e-06
2.038521002e-05
0.0002161374717
0.0002892293917
0.0001792927243
0.0001806472416
0.0001628600893
0.000140935956
0.000362846194
0.0001898184674
0.0002926897424
0.0003784220202
0.0002403432923
0.0003709098129
0.0004409245179
0.0004737939958
0.0005477245557
0.0005291566784
0.0003984238697
0.0004101976264
0.0002783018962
0.0002605750354
0.0003115413394
0.0003169471184
0.0003734711093
0.0004284727552
0.0003968340087
0.0004234620266
0.0002829248295
0.0003245479529
0.0003169631335
0.0004259825518
0.0003796811593
0.0003941294853
0.0003165742677
0.0001508829895
4.733920284e-05
7.495134869e-06
6.40139518e-05
5.710414747e-05
5.133454939e-05
4.976111078e-05
0.0001550274769
0.0001523151019
0.000252608183
0.0001530335847
0.0001963906961
0.0001376947785
0.0001096071907
0.0002141386308
0.0003131190269
0.0002267792756
0.000270052018
0.0003865370396
0.0001712417631
0.000309872831
0.0003337404614
0.0003122083346
0.0004055353479
0.0003663564756
0.000289800707
0.0004006417355
0.0004153039433
0.0003502737871
0.000455314295
0.0002908079082
0.0002774272895
0.0002987537134
0.0003943396759
0.0003157606127
0.0004351370838
0.0003251734347
0.0002657632828
0.0004440835896
0.0002948121246
0.0003543356217
0.0002671588356
0.0001436271308
3.619446751e-05
4.93898965e-07
6.924185548e-05
8.341032804e-05
0.0001886240687
0.0001203885588
0.0001370582726
0.0002210269568
0.0001394147595
0.0002848003994
0.0002641514192
0.0001177531021
0.000185701652
0.0002204153864
0.0002464864363
0.0002431944191
0.0002099997094
0.0003538971138
0.0002436156459
0.0001945628282
0.0001623177604
0.0003268864197
0.000233090556
0.0004016471003
0.0003359446725
0.0003137394556
0.0003685399138
0.0003489016871
0.0002651944717
0.0003690283298
0.0002130089133
0.0003076412654
0.0003444927646
0.0003775327429
0.0002855663409
0.0003093835604
0.0003375949758
0.0004288175301
0.0004427944814
0.0002354310922
0.0002072906086
0.0002543555826
5.830307927e-05
5.310607463e-07
2.181382256e-05
4.241864417e-05
1.876757907e-05
7.629440761e-06
0.0001182926185
0.0001650870802
0.0001768308309
0.0002760558574
0.0003199580697
0.0003055488829
0.0002316605698
0.0002928945688
0.0002028564855
0.000223402293
0.0001053463495
0.0003398575683
0.000326572007
0.000355829393
0.0002791260226
0.000394307264
0.0003315137909
0.0003172140286
0.0003106224514
0.0003036211519
0.0003690578072
0.0002353741698
0.0004459784852
0.0003628191364
0.0003413145645
0.0003153916331
0.0002407995106
0.0003205283386
0.0003638455411
0.0003397768607
0.0003857739884
0.0003963368327
0.0004392646479
0.0004244359408
0.0003765612563
0.0002130837441
4.742490682e-05
5.283400505e-07
8.253133387e-07
1.214622127e-06
1.523829348e-05
6.198960657e-05
0.0001353051275
0.0001313496934
0.0001536205851
0.0002624774331
0.0002920843534
0.0003611764221
0.0003561006987
0.0002370304573
0.0001880103762
0.0002194091201
0.0002035892991
0.000329315627
0.0003509769829
0.0002193587101
0.0001442525775
0.0002331339606
0.0002754310618
0.0003395093598
0.0003428462458
0.0003001743275
0.0003390854784
0.0003244742156
0.0003295051495
0.0004848928373
0.000274093558
0.0003594073374
0.0003045925754
0.0002666385844
0.0004888799738
0.0005292987597
0.000325618673
0.0003807733328
0.000345193395
0.0004457470069
0.0003500433457
0.0001775170726
7.009774511e-05
7.047034337e-07
1.133225542e-06
8.63993191e-05
8.40749859e-05
8.703514183e-05
7.10214502e-05
0.0001523369619
0.0001936970289
0.0001697408738
0.0002261914617
0.0001616956573
0.0001051328314
0.0002514175805
0.0001536252322
0.0003192568387
0.0002726329994
0.000179828018
0.0002790940081
0.000297427992
0.0001955431554
0.0003073428861
0.0003644781405
0.0004374549912
0.0002949681712
0.0003191629838
0.0004174308686
0.000335578234
0.0002812077201
0.0004650973678
0.000287818179
0.000420872583
0.0003865961749
0.00041214146
0.0003712984418
0.0005294367046
0.0003335437835
0.0002991953817
0.0002942150068
0.0003780440683
0.000278291614
0.0002383961409
3.467068509e-05
3.908866082e-05
5.420510391e-05
0.0001138414224
0.0001569890592
0.0001422668785
0.000151518267
0.000128633804
0.0001543288289
0.0001445819328
0.0001632830912
0.0002351968963
0.000107107809
0.0001354915172
0.0001469064334
0.0003276942015
0.0001664066411
0.0002314574374
0.0003471800185
0.0002620596934
0.0004830320183
0.000368655184
0.0002413044413
0.0003076686702
0.0003944803075
0.0002796191981
0.0003909727265
0.0002800847644
0.0001338235217
0.0002902094949
0.000438199301
0.0004687706213
0.0004462769572
0.0004629810463
0.0003780507557
0.0003795552595
0.0002276969657
0.0002083750892
0.00027416611
0.0002827893995
0.0002186555555
0.0002476081168
4.859651591e-05
8.615494696e-05
0.0001140261505
0.0001688416707
0.0001482767639
0.0001341332118
0.0002754508981
0.0001179884157
0.0001522979933
9.626173703e-05
0.0001601740158
0.0003204018995
0.0002210050101
0.0001898523633
0.0002682531218
0.0003360498238
0.0002345953467
0.0002648510205
0.0004036668047
0.000396393845
0.0003313950567
0.0001570675659
0.000131681735
0.0002631748064
0.0003549661035
0.0003453457444
0.0003232929217
0.0002383312512
0.0001666801599
0.0001953334168
0.0003379334981
0.000367516888
0.0004845867383
0.0003500610454
0.000335316095
0.0003614173982
0.0002222338573
0.000265301791
0.0002157809716
0.0002374949872
0.0001251142841
0.0001900166536
5.060265965e-05
1.315462486e-05
6.185076098e-05
5.070975786e-05
6.957744223e-05
0.0001713328592
0.0001110271265
5.585449334e-05
4.085640165e-05
7.29782062e-05
0.0001378407352
0.0001340355029
0.0002343562376
0.0001143704826
0.0002508489333
0.0002541505895
0.0001132001523
0.000311092254
0.0002915301014
0.0004070266755
0.0001953949926
0.0001511862422
0.0001757350233
0.0002540075413
0.0002965713187
0.0003021665573
0.0004748142692
0.0003862050528
0.0001741682919
0.0002011215673
0.0002552072346
0.0003399202865
0.000243190335
0.0002431592415
0.0002797573777
0.000395885864
0.000339934801
0.0002692812131
9.620927438e-05
0.0002701163746
7.668523528e-05
7.658097649e-05
3.993363701e-05
6.062733071e-05
0.0001211884439
0.0001783190458
0.0002112495524
0.0002052587383
0.0001612873798
0.000213281917
7.78777272e-05
0.000249853981
0.000242030703
0.0002489838231
0.0002473715198
0.0002535564683
0.0002087054401
0.0001692298361
9.005798105e-05
0.0001709899824
9.496229528e-05
0.0001961162788
0.0002072436602
6.773163708e-05
0.0002231140217
0.000263213922
0.0002046226095
0.0003147707501
0.0002103034026
0.000183255496
0.0001482640255
0.0001818558782
0.0001575231531
0.0002261912333
0.0002050702307
0.0002413424964
0.0001961750459
0.0002429448012
0.0002223289754
0.0003285182918
0.0001540359305
0.0001176463598
0.0001280089694
0.0001763451835
6.329909413e-05
0.0001471437899
0.0001896825912
0.000277005897
0.0003663942612
0.0003665871107
0.0004097809097
0.0004445332198
0.0005591818162
0.0005354673597
0.0005123832546
0.000665508131
0.0006324693462
0.0005800360488
0.0005710456137
0.0005416010525
0.0005369380181
0.000545403864
0.0004530890521
0.0004009379381
0.000680258998
0.0005685788926
0.0004843209872
0.0004571562806
0.0003972286379
0.0004920180726
0.0006783292484
0.0007668723764
0.0005273997982
0.0001921542509
0.0003478775544
0.0003489771147
0.0003482089356
0.000317528649
0.0002949604767
0.0003976335474
0.0002992799254
0.0005337281788
0.0005202315643
0.0005337167484
0.0007083017376
0.0001767901102
9.441465808e-05
0.0002068796995
0.0002753725046
0.0003102482403
0.0003770535711
0.000470482232
0.0004723588267
0.0005673152586
0.0005989904963
0.000646316842
0.0006174903471
0.0007272085761
0.0007815418239
0.0006462059261
0.0006432337294
0.00070919145
0.0007644985829
0.0007747210951
0.0006588273244
0.000811841581
0.0007867022195
0.0007849648675
0.0007771519588
0.0006697787515
0.0006529394649
0.0008214028085
0.0008574590659
0.0008631270523
0.0008260109365