/*--------------------------------*- C++ -*----------------------------------*\
| =========                 |                                                 |
| \\      /  F ield         | OpenFOAM: The Open Source CFD Toolbox           |
|  \\    /   O peration     | Version:  v1706                                 |
|   \\  /    A nd           | Web:      www.OpenFOAM.com                      |
|    \\/     M anipulation  |                                                 |
\*---------------------------------------------------------------------------*/
FoamFile
{
    version     2.0;
    format      ascii;
    class       volScalarField;
    location    "3.989";
    object      p_N2;
}
// * * * * * * * * * * * * * * * * * * * * * * * * * * * * * * * * * * * * * //

dimensions      [1 -1 -2 0 0 0 0];


internalField   nonuniform List<scalar> 
50792
(
4.713603869e-05
5.11026569e-05
9.879347147e-05
8.821719297e-05
0.0001304214801
0.0001874002214
0.0002278431407
0.0001294811219
0.0001811413578
0.0001404211274
0.0001806287676
0.0001011665374
0.000258977307
0.0001819909454
0.0002311290077
0.0002799428881
9.120512935e-05
7.104373248e-05
0.000153949476
9.755542716e-05
0.0002566946485
0.0002492955223
8.14227738e-05
0.0001287546581
0.0002672357487
3.415220103e-05
5.169780631e-05
0.0003293926158
0.0001399928467
0.0001571535257
0.000261822881
0.0001373305903
7.887583735e-05
0.0001707435487
9.67425893e-05
0.0001684518794
0.0002727341557
0.0001480289763
0.0001664104993
0.0002325781093
0.0002818715874
0.0002871299852
2.571799633e-05
8.016010098e-07
1.158849159e-06
3.780937455e-05
0.0001137374975
0.0001133573062
6.434950256e-05
7.379666669e-05
9.313790549e-05
8.202277778e-05
7.767201806e-05
5.615548785e-05
6.918411043e-05
0.0001745687786
0.000229620654
0.0001643479685
0.0001176852604
0.0001269788474
0.0001756755739
0.0001273017649
0.0001035161523
6.709404285e-05
0.0001276882033
0.0002270435533
0.0003193047308
0.0002298672764
0.0001861792066
0.0002797570791
0.0002654097815
0.000248844741
0.0002961513936
0.0001815689583
0.0002301710977
0.00019074957
0.0001393511625
0.0002989525565
0.0001926832282
0.0003136357732
0.0002660615221
0.0003066098067
8.899664843e-05
8.017592824e-05
3.663749801e-05
5.974777923e-07
2.157424026e-05
3.944661948e-05
4.849638563e-05
9.177226406e-05
8.960462899e-05
4.546534088e-05
6.582207708e-05
0.0001017358009
0.0001803320982
4.181220609e-05
0.000222350782
0.0001513344567
0.0001830531326
7.318929468e-05
0.0001551347308
0.000208669888
0.000277148384
0.0002628990663
0.00022995371
0.0001234581201
0.0002710124278
0.0002796000605
0.000177484637
0.0002761336996
0.0002441090968
5.821742564e-05
0.0002852763923
0.0003068611679
0.0002307577283
0.0001361653344
0.0001868483943
0.0002953216263
0.0002662325911
0.0002463374615
0.0002945220683
0.0003819844871
0.000363398678
0.0002764870093
0.0001689660603
0.0001711837766
2.954050674e-05
5.497670114e-05
3.984954237e-05
4.439752972e-05
7.687650537e-05
9.164478577e-06
6.267294085e-05
3.937788124e-05
4.405842849e-05
0.0001536494676
0.0002140456051
0.0001654965408
0.0002619530065
0.0001106427593
0.0001890964378
0.0002962864682
0.0002005324812
0.0002547480813
0.0001556903237
0.0003238401866
0.0003387042714
0.0003109838211
0.0002076912821
0.0003416634538
0.0004105821824
0.0002897771881
0.0002486325072
0.0002126550993
0.0003362055959
0.0003915504622
0.0002581434725
0.00028230168
0.0001665982614
0.0001987517199
0.0002551176912
0.0002237975069
0.0002151153997
0.0002654388731
0.0003475271676
0.000200988077
0.0001871799518
0.0001807161506
3.043799688e-05
5.578755751e-05
7.556848578e-07
3.763335854e-05
2.848135766e-05
4.56936707e-05
0.0001531820492
6.320046945e-05
3.827337655e-05
0.0001012747282
6.78319756e-05
1.642177402e-05
0.0001197490118
6.792923738e-05
0.0001907779536
0.0001870206244
0.00019617827
0.0002714850105
0.0003053232483
0.00030628003
0.0002843906326
0.0004186500117
0.0003695320679
0.0002719748496
0.0003999786832
0.0003362148634
0.000286724287
0.0002384113801
0.0002335749362
0.0003193421811
0.0003417928352
0.0001246232456
0.000256061479
0.0001897022845
0.0001887061347
0.0002811127527
0.0002387286347
0.0003484786785
0.0003667845988
0.0002223131961
0.0002741081934
0.0001968222587
4.221451628e-05
1.454207554e-05
8.604039889e-05
4.693173052e-05
3.245557008e-05
4.757374259e-05
4.937917436e-05
4.871915799e-05
8.300309835e-05
5.415774424e-05
4.861326634e-05
0.0002007345203
0.0001250515567
0.0001546892183
0.0001002380554
0.0001193858656
0.0001377157831
0.0001003053254
0.0002770906065
0.0002571943239
0.0002704371317
0.0002994763169
0.0004136610171
0.0003515140767
0.000194330816
0.0002381541108
0.0002136450198
0.0002943359818
0.0003254603157
0.0001714438864
0.0003860280153
0.0001741375051
0.0002391202766
0.0002135097564
0.0002064960813
0.0003485839176
0.0002326938948
0.0002365968264
0.0001961786798
0.0002007001448
0.0001601434734
9.345599334e-05
3.055599854e-05
5.007027221e-07
2.236835617e-05
1.217276254e-06
1.408064087e-06
4.717317224e-06
0.0001338355185
0.0001431193329
9.5533938e-05
5.724287871e-05
0.0001025309678
0.0001297852243
0.000156416386
0.0001081472641
6.599638672e-05
6.057049549e-05
0.0001988017913
0.0001556729746
0.0001559950267
0.0002681246712
0.0002067841059
0.0004245657624
0.0003898600882
0.0002525038994
0.0003647549208
0.0003718131696
0.0001853966411
0.0002795262303
0.0001409085515
0.0001932076791
0.0003481753404
0.0003150399839
0.0002193072945
0.000228178029
0.0002958659917
0.0001677165149
0.0001616785532
0.0002935202849
0.0002620629546
0.0003646404963
0.0002701928955
4.521312559e-05
3.757104737e-05
2.382685104e-05
6.548771037e-07
1.815037771e-06
1.335659224e-06
2.484044236e-05
0.0001356529002
9.677653869e-05
7.339898868e-05
0.0001363055555
9.404901923e-05
6.636221442e-05
5.221208359e-05
0.0001345986702
9.594206354e-05
0.0002178346797
0.0003188258102
0.0002581670609
0.0001791434094
0.0002537863746
0.000108079881
0.0002092972606
0.0002759158138
0.0001824901646
0.0003205725709
0.0002571760103
0.0002956514927
0.0001781017192
0.0002771561716
0.0002736756488
0.0003109957254
0.0002522072615
0.0002016849291
0.0001632711612
0.0002346047055
0.0001586822539
0.0003842457492
0.0004182934879
0.000313991946
0.0002457230508
0.0001956663768
0.0001419582431
2.983010655e-05
5.467719212e-05
9.070580851e-05
8.169424221e-05
0.0001131820432
0.0001222186325
7.472925501e-05
0.0001026072003
0.0001377079708
9.124894355e-05
9.704347997e-05
0.0001259064281
6.369606599e-05
0.0001786987367
0.0001203335755
0.0001975339857
0.0002013751514
0.0001431890158
0.0002145662592
0.0002372397973
0.000181508311
0.0002932036302
0.0001463270268
0.0001432517087
0.0003062617626
0.0003748716993
0.0002300979936
0.0002862440613
0.0002254334694
0.0003100633079
0.0001417208849
0.0002645884035
0.0003447899218
0.0002215628232
0.0003291315018
9.554970488e-05
0.0003922548205
0.0003643952638
0.0002837523222
0.0004052399061
0.0001859207588
7.053760149e-05
3.914142078e-05
5.095818664e-07
3.704157507e-05
2.125805339e-05
0.0001298882619
0.0001174394006
5.007350898e-05
0.0001156873088
0.0001671355652
0.0001548590832
0.0001265825814
0.0002533011712
0.0001558389568
0.0001676351211
0.0001436785586
0.0002615670074
0.0001563310436
0.0002398954422
0.000341120121
0.0003319192031
0.0003808923509
0.0001949014536
0.0003530818826
0.0001540789506
0.0002338610081
0.0001336501368
0.0002665509407
0.0002655454458
0.0002745706674
0.0002917439004
0.0002591240993
0.0002942480542
0.000147351449
0.000238256585
0.0001806805578
0.0002712865934
0.0003911394537
0.0003918803728
0.0002514624545
0.0003697505735
0.0003035168305
0.0001870571856
5.180828569e-05
5.54047704e-07
1.083995468e-06
5.521875741e-05
0.0001287394732
0.0001376249868
2.449151155e-05
0.0001281173858
0.0001969395653
0.0001837764138
0.0001806679864
0.0001249446603
0.0001280493909
5.376073395e-05
0.0001627998432
0.0002033552342
0.0001662681774
0.0001792459486
0.0001275053801
0.0002508554144
0.0002477978962
0.0003688269109
0.0002952392938
0.0002723624003
0.0002450055709
0.0002138825465
0.0002264982897
0.0003064124902
0.0002165636386
0.000259172258
0.0003075223017
0.0001735802111
0.0003008601684
0.0002391561946
0.0002837334422
0.0001881271501
0.0003375458418
0.0002967592028
0.0003214273349
0.0002454992751
0.0002781114689
7.633051223e-05
3.259525501e-05
4.242162514e-05
4.819962796e-05
5.602674992e-05
5.863206793e-05
0.0001555429164
7.863890331e-06
0.0001400963578
0.0001986458859
0.0001537592072
0.0001620101569
0.0002697000738
0.0001931401485
0.0001308785233
9.26751331e-05
0.000144487888
0.0001850471996
0.0001720258994
0.0003329385717
0.0002990121743
0.0002306328908
0.0003156437046
0.0002567421724
0.0001583254166
0.0001552306632
0.0001622319153
0.0002585767873
0.0001929413822
0.0003671925668
0.0002236972511
0.0003261709624
0.0002656596969
0.0003092373045
0.0001826045305
0.000185112118
0.0002183496859
0.0002090034191
0.0003098114675
0.0002837567073
0.0002504857306
0.000183124519
5.536765506e-05
4.502790002e-05
4.79795771e-07
6.82203044e-07
6.755594244e-06
4.561939418e-05
0.0001013984713
3.68654866e-05
7.932406414e-05
0.0001379769119
0.0001047378689
2.848422824e-05
0.0002649112329
0.0001954690711
0.0001636541212
4.898232336e-05
5.813602695e-05
0.0001840788609
0.0001422424135
0.0002127272052
0.0002815264513
0.0001946091905
6.839212715e-05
0.0002769901593
0.0002184089199
0.0002414781862
0.0001896227711
0.0001941936702
0.0002958338417
0.0004132579732
0.0003565090866
0.000242658429
0.0002504909201
0.0003115150612
0.0002993742529
0.0002710434438
0.0002865185659
0.0003253447975
0.0002061682629
0.000233706246
0.0002065189699
0.0002543508184
5.51230072e-05
3.701445724e-05
5.517179024e-05
6.577020972e-05
7.10538698e-05
0.0001231136508
0.000150838983
8.166357225e-05
0.0001947008678
0.0001068548616
0.0001692525732
0.0001097972776
0.0001841713358
7.517118786e-05
0.0002273521241
0.0002014078716
7.189683264e-05
0.0001120782489
0.0001746046625
0.0001229626005
0.0001093461247
0.0001839051073
0.0002347857633
0.0001729001368
0.0003649603769
0.0003949188914
0.0003126940377
0.0003301524644
0.0004051143007
0.0003581344498
0.0002588088355
0.0002827571029
0.0003098770264
0.0002574860089
0.000231406321
0.0001585108172
0.0003857033489
0.0003091565011
0.0001891114761
0.0002244028755
0.0001817794645
0.0002386472412
0.0001211061201
3.521588753e-05
1.638980078e-05
5.443697502e-05
7.812414944e-05
7.144834921e-05
8.168473402e-05
0.0001525539487
8.544251893e-05
0.000148687155
0.0001991697323
0.0001537839347
0.0001517874743
0.0001012440113
0.0001391144714
0.0001847278907
0.0001562705259
7.226009152e-05
0.0001944264063
0.0002552663652
0.0002220275834
0.000133407767
0.0002019955104
0.0002307438915
0.000285218262
0.000269614189
0.0002814631146
0.0001399885821
0.0002229222828
0.0002600098319
0.0004045352753
0.0003580876469
0.0003119274903
0.0002045011526
0.000198941462
0.0003234181879
0.0002995315345
0.0003302662897
0.0003676784697
0.0003262147617
0.0001402215846
0.0002124543515
7.567969327e-05
3.671160759e-05
3.795237078e-07
6.953633137e-07
1.414988355e-05
9.56004436e-05
9.630324548e-05
8.066485711e-05
0.0001507438408
0.0001527795194
0.0001957757763
0.0001627591788
0.0001004411337
0.0001265100776
0.0001936954163
0.0001428134079
0.0001591418215
0.0003254242693
0.0002321615465
0.0002254663058
0.000306037708
0.0002484372185
0.0002599495596
0.0001586487815
0.0002140727361
0.0002094997407
0.0002209641356
0.0003831060039
0.0003251610675
0.000230382754
0.0003235532363
0.0002636301199
0.0002083032716
0.0002818671292
0.0001926926109
0.0003768357837
0.0001850980091
0.0003123816527
0.0002275082647
0.0001984310863
0.0001889608733
0.0001969021985
0.0001802798479
4.96704955e-05
5.15145118e-07
7.962691378e-07
8.382548319e-06
6.173940879e-05
1.681181395e-06
5.323805606e-05
0.0001572145443
0.0001236045355
0.0001600884696
2.543660552e-05
9.698492745e-05
0.0002209096212
0.0001038397146
0.0001155206973
0.0001486104456
8.026259115e-05
0.000191549472
0.0003360163899
0.000227930368
0.000189411283
0.0001545003741
0.0002064216204
0.0002527951011
0.0002650126173
0.0001935795527
0.0003404261039
0.0002420866406
0.0002994222531
0.00029074245
0.000274460955
0.0002452150097
0.0002864974179
0.0003202870499
0.0004641988354
0.0003903809699
0.0004023935329
0.0002808081745
0.0002423556736
0.0003362348382
0.0001896624759
5.685188071e-05
3.960261098e-05
2.855733314e-05
5.725234794e-06
9.651170232e-07
4.726756944e-05
2.449898034e-06
8.167469124e-05
7.681307527e-05
0.0001551359953
0.0001431715816
9.8176363e-05
0.0001229237483
0.0001076710075
0.0001092842791
0.0001689418871
0.0002021397171
0.0001605125784
0.0001842347232
0.0003818667518
0.0003703297225
0.0002380896138
0.0002286672066
0.0002008833136
0.0003406160198
0.0001950460608
0.0003104603872
0.0002134187433
0.0001825568233
0.00015281377
0.0001510979975
0.0002013717341
0.0001854539933
0.0002103751793
0.0002130049581
0.0002965524627
0.0003732991969
0.0004190990764
0.0003044819476
0.0003374488463
0.0002139743261
0.0002084818077
4.343306104e-05
5.261524544e-05
2.692308649e-07
4.902128498e-05
1.048867318e-06
4.088786782e-05
8.533767765e-05
0.0001472238125
3.661417979e-05
0.0001003067077
0.0001411327583
0.00019024827
0.0001068126592
0.0001132330181
0.0001810842343
0.0002942893105
0.0001867065951
0.0001646581343
0.0001779931454
0.000249809028
0.0003076274566
0.0002086852721
0.0002347079595
0.0001878378162
0.0003552720424
0.0002412976581
0.0002647498105
0.0004074453288
0.000302379704
0.0003120991916
0.0003482067151
0.0003009777767
0.0003555619662
0.0002406706489
0.0002599911483
0.0003130057279
0.0003432828346
0.0004330375891
0.0003128082684
0.0002309935632
0.000161936055
0.0001809299539
5.840534487e-05
4.052564831e-05
1.1254646e-05
2.703242496e-05
3.821260261e-05
0.0001006969721
5.843837417e-05
9.191853213e-05
6.645478435e-05
5.284527687e-05
0.0002068349267
0.000275700668
0.0001370391282
0.0001619649883
0.0001944667547
0.0001640469601
0.0002521362049
0.0002462319615
0.0003110525665
6.990271303e-05
0.000289148259
0.000283379281
0.000270780839
0.000293392751
0.0004165766956
0.0003905621077
0.0003958253867
0.0004263867578
0.0003871456607
0.0002859061868
0.0002783842424
0.0002404670482
0.0002150289781
0.0002183371352
0.0003262567865
0.0002107429261
0.0001424250858
0.0002830373692
0.0002435276415
0.0002905861131
0.000215888977
0.0002020900048
0.00015782699
6.576311125e-05
5.624512533e-07
4.150815893e-05
6.527408267e-05
5.6648496e-05
2.917382278e-05
7.688194752e-05
0.0001337736275
0.0001950409607
0.0002148253478
0.0001233079053
0.0002571280396
0.0001421696467
0.0004062685165
0.0002271766893
0.0001955363203
0.0004263213021
0.0003593376413
0.0002831890195
0.0003302910656
0.000461559933
0.0003603083984
0.000309862374
0.0003487570795
0.0003051696882
0.0002681472922
0.0003612237136
0.0003619922359
0.0003630992474
0.0002697911354
0.0002930098006
0.0002769868336
0.0003137756598
0.0002439161092
0.0002397590244
0.000273330516
0.0002231078307
0.0003205586836
0.0002094201326
0.0001323546944
0.0002049249742
0.0001333449602
3.943943543e-05
4.453377871e-07
1.820204061e-05
5.115485273e-05
5.588793546e-05
3.440035877e-05
7.34312272e-05
7.668277511e-05
4.745126253e-05
6.597197743e-05
0.0001035052139
0.0001722360699
0.0002361991737
0.0002499857923
0.0003756902438
0.0002975313269
0.0002566810286
0.0003294528747
0.0002110401219
0.0002194044845
0.0002993075278
0.0002831408438
0.0003725386211
0.0003431565792
0.0002938299586
0.0003317721489
0.0003546660706
0.0002507878544
0.0001592150321
0.0002608873003
0.0003227979753
0.0002813534531
0.0002903821422
0.0003104346364
0.0002261056311
0.0003402778651
0.0002737878632
0.0003434791882
0.0001811489457
0.0002836865239
0.0001903818679
8.240075273e-05
3.543435367e-05
4.628107068e-06
4.983996777e-05
8.818053526e-07
4.156179977e-05
6.980186033e-05
5.884982071e-05
7.34520813e-05
5.356224451e-05
0.000125314541
8.858166236e-05
9.002476957e-05
8.805248109e-05
0.0002368715199
0.0001001148341
0.0002809030523
0.0002904078285
0.0003250428161
0.0002504459554
0.0001488461215
0.0001681024204
0.0001837027238
0.0003069723755
0.0001887532308
0.0004273724155
0.0001924954
0.0002836813814
0.0002366263889
0.0001657390225
0.0002978013786
0.0003089044858
0.0004423351249
0.0003922545125
0.0002730967722
0.0003378995074
0.0002893730313
0.0003816790279
0.0003974098493
0.0002560852153
0.0002534148449
0.0001570734456
7.644305582e-05
5.131281623e-05
7.343848554e-05
8.507061471e-07
1.583698406e-06
7.164395233e-05
2.674132387e-05
3.82981259e-05
5.168923988e-05
6.41333546e-05
0.0001603825174
0.0002010087032
0.0001559044062
0.0002336398871
0.0002078637684
0.0001941372447
0.0002021994565
0.0002710709145
0.0003078495468
0.0003168436504
0.0001338496964
0.0001529857092
0.0001794180099
0.0002549758832
0.0001985448021
0.0004005840562
0.0002745541397
0.0003050733118
0.0002265716401
0.0002204748315
0.0001113868236
0.0002272383302
0.0002989141136
0.0003101143216
0.0002600069108
0.0002503583464
0.0002437378139
0.0002510584481
0.0003662797765
0.0002795257215
0.0003296595263
0.000183838807
0.0001146044854
2.794379963e-05
4.151557951e-07
6.927866015e-07
3.300508036e-05
6.781686282e-06
2.263039809e-05
7.919604816e-05
2.347622334e-05
5.266571573e-05
0.0001616269023
0.0001801235139
0.0001685616241
0.0002147479003
0.000125313655
0.0002598704918
0.0003326430545
0.0002075861074
0.0002607367182
0.0001786666421
0.0003277134547
0.0001339119251
0.0001815049957
0.0002152726283
0.0002717278568
0.0002702541277
0.0003181713621
0.0002414138699
0.0002640492814
0.0002424694431
0.0002457159363
0.0002205572142
0.0003149041415
0.0003212982522
0.0003195423949
0.0002606529042
0.0002447415348
0.0001997438573
0.0002950122341
0.0001631005457
0.0001124177341
0.000200261821
0.0001004072314
2.174128268e-05
3.987918243e-07
3.271128939e-05
1.368048697e-06
4.871242929e-05
0.0001106967969
0.0001192600501
0.0001199776932
6.597027464e-05
0.0001230386303
5.340549208e-05
8.29212737e-05
0.0002160094924
0.0002591952757
0.0002853680613
0.000316990866
0.000214449017
0.0002824628741
0.000169767122
0.0002555820046
0.0001642672589
0.0001144478008
0.0002858165725
0.0002827565483
0.0002707960602
0.0002442153898
0.0003262891329
0.00036186503
0.000328710173
0.0003083894586
0.0002887264886
0.0002233735997
0.000354714161
0.0003004230485
0.0003245582289
0.0002374317306
0.0001242527656
0.0002058729433
0.000263785151
0.0002297615881
0.0001124206543
0.0002973505655
2.474363037e-05
1.974871133e-05
9.688051463e-05
0.0001242295868
5.401601915e-05
7.400922245e-05
2.808024915e-05
4.793683006e-05
5.380715056e-05
4.226398742e-05
7.231492111e-05
0.000158247852
0.0001096152333
0.0002134409501
0.0002051481099
0.0002046170035
0.0003261710983
0.0003112542075
0.000276180365
0.0003641064831
0.000312641867
0.0002004453468
0.0002216591689
0.0002446395831
0.0003630385271
0.0002182815967
0.0003025992028
0.0002990799529
0.0004057410348
0.0001954476659
0.0003327702106
0.0003221794787
0.0002756139057
0.0003292272726
0.0002704165245
0.0002714922532
0.0002716700168
0.0002100001413
0.0002372257109
0.0001902303002
8.732994661e-05
0.0002156490403
4.232396292e-05
5.962350264e-05
3.840711761e-05
0.000116471211
0.0001189465493
0.0001557502827
9.273038172e-05
7.275553397e-05
7.940010859e-05
4.136180008e-05
0.0001107691821
0.0001740389731
2.453956874e-05
0.0002028515527
0.0002391880138
0.0002527373618
0.0003168036909
0.0003138533141
0.0002373350773
0.0002893275404
0.0003497329379
0.0002408472789
0.0001854046719
0.0001640585625
0.0002450441201
0.0001264548432
0.0002694109511
0.0003239393594
0.0003655594504
0.0003055910414
0.0002560406861
0.0002814030548
0.0002819012543
0.0002944030195
0.0003990851865
0.0002388768742
0.0003716002037
0.0002306414616
0.0003300683709
0.0002171541263
0.0001863417047
0.0001128548897
4.402444726e-05
3.786236195e-05
0.0001229820359
0.0001109201469
1.884584238e-05
2.964684268e-05
0.0001086590304
9.690120901e-05
0.0001331941729
0.0001084454663
0.0001331062615
0.0001869179247
0.0001669411321
0.0002136939604
0.0002539937496
0.0001228123135
0.0002236145301
0.0003645137338
0.0001988070448
0.0003016686832
0.0002738600232
0.0001851036945
0.0002147724542
0.0002775417885
0.0003255534593
0.0002659791471
0.000329674207
0.0002132348765
0.0003497143798
0.0003426924878
0.0002524787809
0.0002068632143
0.0003047863858
0.000158842001
0.0001860454703
0.0003305691203
0.0002530871624
0.0002522505779
0.0002513725883
0.000177470208
0.0002078335928
0.000238476213
3.620245131e-05
2.346537407e-05
4.47764672e-05
7.745477324e-05
1.617608173e-05
5.229598151e-05
1.685002133e-05
0.0001047367923
0.0001345992568
1.586601083e-05
0.0001340029315
0.0001334519318
0.000179687931
0.0001425948918
0.0002213833437
9.876983923e-05
0.0001693293298
0.0001906394754
0.0003534785439
0.0002162190116
0.0003228916632
0.0002706551036
0.0002623226931
0.0004836121093
0.0003083790915
0.0002570023705
0.0002819268779
0.0002629773125
0.0001903835258
0.0001819162524
0.0002311178374
0.0002177503407
0.0001475144322
0.0002483475899
0.0002270022001
0.0002954083666
0.0003343629886
0.0003621687182
0.0003505650283
0.0003008564358
0.0002294892831
0.00017412964
3.86105487e-05
2.443681493e-05
3.669114378e-05
1.381270312e-06
2.0175082e-06
4.61562132e-05
0.0001381017278
1.647526491e-05
0.0001528302972
0.0001521094995
6.376826568e-05
8.735438978e-05
7.306666214e-05
0.0002372553593
0.0001699570761
0.0001703025641
0.0002422456551
0.00011850089
0.0002888891046
0.0002353918966
0.0003643962909
0.0002373101845
0.0002901111449
0.0002026577486
0.0002906715565
0.0001565675895
0.0002622972738
0.0002347412775
0.0002906352507
0.0002191373561
0.0002703395131
0.0002970384961
0.0002705679921
0.0002392007564
0.0002362520022
0.0003435076806
0.0002419255509
0.0002605310864
0.000337056314
0.0002271890354
0.0002951678313
0.0001194786377
3.141320563e-05
4.502878684e-05
1.128436599e-06
1.556624477e-06
2.079968472e-06
6.520195837e-05
8.843090553e-05
0.0001208594176
9.038752556e-05
3.583592081e-05
9.390264094e-05
3.927243906e-05
7.790355133e-05
3.85173786e-05
0.0001384576358
0.000168134367
0.0001875364821
0.0001907925394
0.0001800110694
0.000298267257
0.0004206909732
0.0003524141081
0.0003139591396
0.0003333449201
0.0003746104561
0.0002917017384
0.0001816767383
0.0001581176148
0.0003573412386
0.0002079102278
0.0002997644852
0.0003726102525
0.0002730204738
0.0002887254145
0.000222536732
0.0003021952662
0.0002867897334
0.0002709260979
0.0002001584924
0.0002914920398
0.000194366498
0.0001202748939
4.524321127e-05
5.673771245e-05
1.025293772e-06
7.966259579e-06
8.03616681e-05
2.139765479e-06
1.953150416e-06
1.953758767e-05
0.0001973879884
0.0001810555118
8.83875705e-05
0.0001193708763
0.0001292678668
0.000106962054
0.0003045403437
0.0001729169094
0.0002714748836
0.0003187262838
0.000187635105
0.0003037827868
0.0003611471188
0.0003851983303
0.000378268589
0.0004184185138
0.0003128991165
0.0003677002548
0.0002555277831
0.0001967598651
0.0001901281789
0.0002529624473
0.0003176953556
0.0003084296954
0.000245296571
0.000346556416
0.0001895525415
0.0002134181149
0.0001390234911
0.0002660267697
0.0002738732539
0.0003246206619
0.0002201126333
0.0001150735073
2.866893534e-05
7.426122351e-06
1.078801227e-06
5.568034858e-05
3.22196033e-05
4.87561241e-05
0.0001480321502
0.0001120380694
0.0001783440335
5.933748274e-05
0.0001587538543
9.704201318e-05
6.579372671e-05
0.0001643503666
0.0002689802604
0.0001974663883
0.0002488612872
0.0002336207759
0.0001015013083
0.0002399744565
0.0002922658606
0.0002775902696
0.0003235191546
0.0003061775574
0.0002543309581
0.0003061222469
0.0003534933802
0.0002889057377
0.000330761399
0.0002375227412
0.0002176060141
0.0002443258001
0.0002761463172
0.0002434841185
0.0003490542452
0.0002497992446
0.0001855610117
0.0002516158973
0.000215067838
0.0002645660334
0.0002097719506
0.0001162662257
2.850511388e-05
3.246729048e-07
8.634354234e-07
7.723133443e-05
0.0001570539862
0.0001122531583
0.0001168686248
0.0001819869092
0.0001003899716
0.0001958383607
0.0002173609323
8.542884976e-05
0.0001360035165
0.0001512825515
0.0001746578929
0.0001432741914
0.0001556726364
0.0002690210164
0.0001787715117
0.0001719345173
0.000147398461
0.0002849644136
0.0001564784171
0.0003576432285
0.0002967592985
0.0002520306606
0.0003170934474
0.0003078162616
0.0002385895514
0.0002676643755
0.0001683597876
0.0002161586835
0.0002722143833
0.0003135923572
0.00026516254
0.0002781545024
0.0002356507725
0.000249987896
0.0003685792508
0.0001947681753
8.182565672e-05
0.0002194373555
5.179754303e-05
4.767482531e-07
1.003131251e-06
9.270280793e-06
1.846964411e-05
7.265005143e-06
0.0001133182867
0.0001546246324
0.0001453883828
0.0001939403836
0.000249513622
0.0001986256356
0.0001785793289
0.0002646694394
0.0001861427415
0.0001962140447
8.744225711e-05
0.0002519555925
0.0002937773255
0.0002914777319
0.000216665585
0.0003314665582
0.0002819945014
0.0002771548716
0.0002737555348
0.0002694959718
0.0002996282301
0.0002120401777
0.0003727399582
0.0002265399732
0.0002677500652
0.0002209717588
0.0001182936897
0.0001664109147
0.0002777911166
0.0002972644677
0.0003264898242
0.0003168630476
0.0002975429239
0.0003334555462
0.0002575336042
0.0001503267692
4.492844178e-05
5.075214196e-07
7.130994865e-07
8.858303373e-07
1.450808664e-05
5.7859221e-05
0.0001208790078
0.0001211625344
7.183384024e-05
0.000227641441
0.0002201685518
0.0002369246936
0.0002935855633
0.000202223779
0.0001610900125
0.0001960296995
0.0001584526474
0.0002295796814
0.0002259072831
0.0001876568774
0.0001287607933
0.0002039896233
0.0002537519242
0.0002573476895
0.0002321935331
0.0002627149882
0.0002939407951
0.0002229910772
0.0002322063079
0.0003526923243
0.00022976984
0.0002327730641
0.0002191466397
0.0002317059184
0.0003581867102
0.0003726201956
0.0002030435956
0.0002756811561
0.0002287795074
0.0003669362384
0.0002777384612
0.0001500370138
4.926985111e-05
4.904529342e-07
8.840627343e-07
8.011462927e-05
7.911709324e-05
4.664373906e-05
6.799052855e-05
0.0001422561472
0.0001427167633
0.0001199652244
0.0001518006602
6.787526671e-05
9.791608e-05
0.0002105552735
0.0001290904626
0.0002950749965
0.0002017062257
0.0001649151067
0.0001680400609
0.0002310921643
0.0001380636803
0.0001591592644
0.0002880800146
0.000323368364
0.0002415412026
0.0002387220303
0.0002287820908
0.0002689654878
0.0002485918286
0.0003595983476
0.0002136506041
0.0003258388611
0.0003168024516
0.0002489055218
0.0001649060292
0.0003905628207
0.0002838044224
0.0002621845438
0.0002061029422
0.0003266833816
0.0002421535324
0.0002198028108
3.041406615e-05
3.788661895e-05
5.20626352e-05
0.0001090484792
0.0001464290466
0.0001329125584
9.573658296e-05
0.0001226911221
0.0001060752286
0.0001002467306
0.0001191380312
0.0002091995071
8.707230405e-05
0.0001185108883
0.0001051520937
0.0002251504082
0.0001361772713
0.0001871471124
0.0002854797996
0.0002273250106
0.0003810616403
0.0003291021531
0.0002222690873
0.0002111266945
0.0002784601253
0.0002115998476
0.0001858499214
0.0002203893685
9.093543588e-05
0.0002106803997
0.0003350848573
0.0002670993731
0.0002672209756
0.0003315573452
0.0002750338434
0.0002410418374
0.0001580150015
0.0001471373074
0.0002197903567
0.0002154074376
0.0001758489538
0.0001827140966
3.330188949e-05
6.566958791e-05
9.890961196e-05
0.0001470007451
0.000134609331
0.0001221389551
0.0002096020181
8.639195503e-05
6.562742419e-05
8.326625814e-05
0.0001519507934
0.0002812405823
0.0002029487069
0.0001194194752
0.0001629189799
0.0002748279505
0.0001662550439
0.0002332331284
0.0003265826281
0.0003470773584
0.0002473484659
0.0001204855421
0.000119713003
0.0002409006564
0.0002408940573
0.0002894955878
0.0002876294486
0.0002062858115
0.0001365576885
0.000165804276
0.0002407707637
0.0002908635447
0.0003843216881
0.0002599096502
0.0002203894814
0.0002101342138
0.0001828195365
0.0001275052414
0.0001351093027
0.0001797488408
9.487360374e-05
0.00014624533
3.177084916e-05
1.255941134e-05
5.721322365e-05
4.738683211e-05
6.51961909e-05
0.0001334394393
9.955354723e-05
5.314715597e-05
3.862790615e-05
7.020223156e-05
0.0001278581347
0.000120703118
0.000172079261
5.891181014e-05
0.0001486657892
0.0002284010346
4.924864387e-05
0.0002800018744
0.0002437775115
0.0003784463045
0.000165129761
0.000115954928
0.000157561735
0.0002007530407
0.0002318787886
0.0001816162003
0.0003964839569
0.0003244939079
0.0001510481338
0.0001825683414
0.0002123664135
0.0002723154566
0.0002288505351
0.0002298477267
0.0001651166144
0.0003193052482
0.0002189995071
0.0001559076809
5.640190196e-05
0.0001954365289
4.9804943e-05
7.386590764e-05
3.901274159e-05
5.425418491e-05
0.0001021080286
0.0001580298299
0.0001736572198
0.0001861786169
0.0001205800318
0.0001702264494
7.572758531e-05
0.0002042851788
0.0001590858066
0.0002247331071
0.0001741216793
0.0002208034171
0.0001976114255
0.0001579134079
8.477172243e-05
0.0001650239023
8.417605603e-05
0.0001837711069
0.000177591846
4.400738388e-05
8.850201372e-05
0.0001991155416
6.958346137e-05
0.0001397373354
0.0001984412573
0.0001757330822
0.0001395710415
0.0001544358225
0.0001506681665
0.0002015803856
0.0001821335073
0.000222619252
0.0001596995739
0.0002185042167
0.0001493176429
7.219133886e-05
0.0001442490508
0.0001017872367
0.0001097822457
0.000157351614
5.658525032e-05
0.0001269557645
0.0001734056846
0.0002434230355
0.0002901123336
0.0003103795528
0.000352094156
0.0003653545196
0.0004025727735
0.0003549497771
0.0004063759375
0.000517426339
0.0004347529363
0.0004900856951
0.0004344795104
0.0004015279348
0.0003785537484
0.0004423050222
0.0003476404287
0.0002624620484
0.0005402607695
0.0004946196711
0.0003756063992
0.0003167861214
0.0002785569913
0.0002643969956
0.0003584617382
0.0005730509565
0.0004349911695
0.0001583556141
0.0002712658519
0.0002714969061
0.0002385955561
0.0002359675309
0.0001959177598
0.0003279548664
0.0002324503129
0.0004303255956
0.0004493404969
0.0004337595393
0.0006164107448
0.0001332763987
6.959497538e-05
0.0001559688488
0.0001959072866
0.0002268858892
0.0002547879713
0.0003349228332
0.0003313389731
0.0004328103378
0.000448450208
0.0004313962204
0.0005048767273
0.0005913730895
0.0006207178012
0.0005174567077
0.0005133229527
0.0005421816939
0.0005546201998
0.0006218889639
0.0004874956874
0.0006082693096
0.0006192827406
0.0005977700417
0.0006238385484
0.0004841197449
0.0004865540429
0.0005726892685