/*--------------------------------*- C++ -*----------------------------------*\
| =========                 |                                                 |
| \\      /  F ield         | OpenFOAM: The Open Source CFD Toolbox           |
|  \\    /   O peration     | Version:  v1706                                 |
|   \\  /    A nd           | Web:      www.OpenFOAM.com                      |
|    \\/     M anipulation  |                                                 |
\*---------------------------------------------------------------------------*/
FoamFile
{
    version     2.0;
    format      ascii;
    class       volScalarField;
    location    "3.989";
    object      p_O2;
}
// * * * * * * * * * * * * * * * * * * * * * * * * * * * * * * * * * * * * * //

dimensions      [1 -1 -2 0 0 0 0];


internalField   nonuniform List<scalar> 
50792
(
8.768109087e-06
3.320297984e-05
7.512154306e-05
1.633200344e-05
2.350576892e-05
3.536371028e-05
5.744652351e-07
5.464209476e-05
5.855322248e-05
1.20377551e-05
8.755557313e-05
5.808396619e-05
9.523714056e-05
7.847660229e-05
6.535386963e-06
0.0001137651737
3.582128741e-05
4.0645003e-05
7.376404138e-06
6.164044262e-06
4.051033641e-06
1.779624828e-05
3.484477868e-05
3.129879432e-05
1.981920686e-05
9.653846304e-06
0.0001857454563
9.206409951e-05
5.151518803e-05
7.335349897e-05
8.570823422e-05
3.801648466e-05
1.127095203e-05
9.668167049e-06
0.0001112600103
1.295395751e-05
1.165030601e-05
3.611338361e-05
1.420573167e-05
1.336876343e-05
2.071201878e-05
1.771418581e-05
1.905564882e-05
1.483643287e-07
1.564813905e-07
2.550608809e-07
3.292451932e-07
4.158339499e-07
3.701612404e-05
6.895167378e-05
2.586025761e-06
6.912879592e-05
1.637424193e-05
6.415143163e-05
4.346122853e-05
2.301803893e-05
2.033031482e-05
6.405746061e-05
4.882538663e-06
4.892501506e-05
1.680859335e-05
6.92794132e-05
8.182869832e-05
0.0001120961829
0.0001095979872
6.369101921e-05
5.15226923e-05
5.35225752e-06
5.492683196e-05
1.947244464e-05
2.619583416e-05
9.62819777e-05
6.744458588e-05
0.0001506147143
7.62068469e-05
3.201301723e-05
7.48657634e-05
7.485349059e-05
6.776831608e-05
0.0001321578424
0.0001206870277
6.041748583e-05
4.008057701e-05
8.132128699e-06
3.816989834e-09
1.973381839e-08
9.336103582e-08
1.000744756e-07
2.621352167e-07
3.34557069e-07
5.858554154e-05
1.907302732e-05
4.846975371e-07
6.305667003e-05
8.581716694e-06
1.431373582e-05
3.172389754e-05
1.995194726e-05
3.398297122e-05
8.422258892e-06
1.750888116e-05
0.0001044725609
6.653098377e-05
3.278827032e-05
5.502322122e-05
7.903399609e-05
4.811372457e-05
7.810766987e-05
1.933425521e-05
6.422257127e-06
3.752255372e-05
6.209047028e-05
5.259597806e-05
1.410186364e-05
3.16668394e-05
0.0001611159076
6.043284506e-05
3.550550899e-05
0.0001021328311
6.440592997e-05
3.055539479e-05
2.861911072e-05
6.420187712e-05
2.263179996e-05
0.0001123497514
7.563023244e-05
3.339266366e-06
3.410687852e-08
1.420322117e-07
1.756419351e-07
2.258009935e-07
3.380216756e-07
4.640970158e-07
4.553562105e-07
4.218670922e-05
1.428898063e-05
6.725046227e-05
9.314933012e-05
3.740527635e-05
2.06767816e-05
3.496378766e-05
3.032394145e-06
0.0001331200815
3.36029176e-05
7.348519597e-05
0.000145988044
0.0001217623984
0.0001104931641
1.194063724e-05
4.375312455e-05
1.505532874e-05
1.079564377e-05
6.697532722e-05
8.832290011e-05
5.164668364e-05
2.817888775e-05
0.0001020866747
0.0001102627842
0.0001231556405
5.789163525e-05
6.569613578e-05
2.376806714e-05
3.028798953e-05
1.394456467e-05
0.0001016779629
7.932940288e-05
3.191165005e-05
9.63410317e-06
1.329717585e-05
7.265888526e-08
2.282694886e-05
2.217990551e-05
6.933561125e-07
5.709897666e-07
6.797637348e-05
2.380443892e-05
7.721699304e-05
1.049279846e-05
6.055839347e-05
1.857814159e-05
5.011903985e-05
4.721909687e-05
1.407562993e-05
3.458359624e-05
7.476366999e-05
3.054751271e-05
4.57603591e-05
6.71231155e-05
9.081300698e-06
0.0001083554529
0.0001133654388
8.65416122e-05
2.704175954e-05
0.0001168434398
7.609877228e-05
1.974829096e-05
8.415609742e-05
0.0001316802863
0.0001080090706
0.0001155227613
0.000114325925
5.054347824e-05
8.775211566e-05
1.062982958e-05
3.980207983e-05
3.883384145e-05
7.282232137e-05
4.88645672e-05
6.815961221e-05
2.128429409e-05
1.539231463e-08
7.096120276e-08
1.18683585e-07
1.710926754e-07
3.745346319e-05
3.039686297e-07
5.37015613e-06
7.214805778e-05
5.467129001e-05
8.655098721e-06
2.526970637e-05
5.784260123e-05
6.249963307e-06
4.444309729e-05
3.261689175e-05
5.326185895e-05
1.82842536e-05
6.372877421e-06
4.008561359e-05
5.908576709e-05
2.233859737e-05
0.0001207425891
5.529422875e-05
9.276915655e-05
2.632898347e-05
4.5309567e-05
5.276605322e-05
0.0001016330337
0.0001173555974
4.49551648e-05
5.825354164e-05
8.084833323e-05
0.0001226573901
9.276426103e-05
8.146578405e-05
4.195112675e-05
1.230998479e-05
4.510855458e-05
5.956953801e-05
9.458304409e-05
0.0001201659184
2.59156721e-05
4.611412067e-07
3.248971144e-10
2.197186158e-09
6.733593433e-08
1.721705474e-07
6.355864883e-06
3.852732831e-05
4.236121523e-06
2.575778642e-05
2.963384797e-05
1.672654333e-05
1.296091484e-05
5.568294424e-05
9.204316704e-06
1.564887499e-05
5.197644181e-06
2.895284282e-05
2.110207469e-05
5.217526252e-05
8.664092539e-05
0.0001058313747
3.746572357e-05
4.706702935e-05
3.462707351e-05
5.325102091e-05
6.491370634e-05
0.0001230057309
9.752228449e-05
7.278699943e-05
6.550767961e-05
8.002416386e-05
5.497464495e-05
9.664633733e-05
1.004434629e-05
1.720855981e-05
4.543469742e-06
4.886219192e-05
4.115840884e-05
3.855846707e-05
6.621006049e-05
9.557478574e-05
3.193677398e-05
4.995705747e-09
8.834275836e-08
2.998117892e-07
5.614464978e-07
5.771013215e-07
2.519043885e-05
1.467921733e-05
2.720413926e-05
2.274288498e-06
4.914136618e-05
3.670169983e-05
1.482162473e-06
5.678147526e-06
3.129753592e-06
2.086375446e-05
3.515557313e-05
1.091411447e-05
1.746986646e-05
7.776223292e-05
6.509731392e-05
8.094061531e-05
8.732988237e-05
5.643142561e-05
4.986841238e-05
4.690940229e-05
0.0001425479811
0.0001145087354
9.024316439e-05
5.239463609e-05
6.843422407e-05
7.273584917e-05
6.162291324e-05
3.387985704e-05
0.0001111038644
5.638688584e-05
3.449042738e-05
6.283272656e-05
4.610311097e-05
9.392745568e-05
2.89853736e-05
7.720976319e-05
7.462443597e-05
3.881877486e-08
1.421572309e-07
2.155162891e-05
1.741433654e-07
2.32495737e-07
2.388219431e-07
4.006293615e-07
4.975254548e-05
2.024050064e-06
5.398475596e-05
5.241105156e-06
1.961954187e-05
9.161837987e-07
1.086434989e-05
5.964927496e-05
8.744374693e-06
3.274759911e-06
2.163056235e-06
4.32253334e-05
6.451878935e-05
1.111790884e-05
0.0001453956665
5.623737031e-05
0.0001140340822
4.734708047e-05
1.186464743e-05
4.655228573e-05
6.858200766e-05
9.122379953e-05
0.0001539288572
0.0002233807993
0.0001548398894
0.0001069216623
6.120252082e-05
6.070265648e-05
0.0001319361122
0.0001191172028
0.0001609815618
0.0001084000058
4.959789038e-05
0.0001389297789
2.599452335e-05
8.878977695e-06
3.881166488e-08
2.818146888e-05
1.252272536e-07
3.208202802e-07
5.565971649e-07
3.285865962e-05
4.621980847e-06
5.044577843e-07
3.963498742e-05
2.892667151e-05
5.445078889e-05
3.402451795e-05
4.034678131e-05
8.156911931e-05
3.235190013e-06
3.338538256e-05
1.487057539e-06
4.101456506e-05
6.040831757e-05
8.353767928e-05
9.303401359e-05
4.98897214e-05
9.465205968e-05
8.839234476e-06
1.160005891e-05
4.9295972e-05
5.322278716e-05
9.779987792e-05
0.0001650548773
2.085904372e-05
7.101168134e-05
1.269083493e-05
0.0001319701888
4.037449289e-05
3.48963542e-05
3.649614558e-05
9.191462337e-05
0.00011690113
5.216118172e-05
0.0001015782492
2.674860705e-05
9.5230289e-06
-6.776263578e-21
9.714029423e-06
4.717610309e-08
1.462977787e-07
2.818899306e-07
3.303442178e-06
1.88148928e-05
8.337908088e-05
1.966940651e-06
5.387878099e-05
9.825127066e-07
8.302121985e-05
4.915610452e-05
0.0001066904882
3.662909878e-05
7.682323131e-05
2.470601212e-05
2.090419798e-05
3.670285392e-05
1.036935546e-05
8.260679032e-05
8.606436207e-05
7.151717483e-05
8.99842855e-06
1.683981673e-05
3.017272186e-05
7.227260226e-05
0.000102999965
0.0001164183091
6.580163034e-05
4.476545189e-05
5.797444331e-05
6.536919359e-05
0.0001044383658
6.628850472e-05
2.555505259e-05
8.974257266e-05
0.0001134823523
5.115548503e-05
6.701685538e-05
1.630214067e-05
4.613539134e-06
2.970760975e-05
6.949794413e-06
1.929239527e-07
4.021204244e-07
4.851757908e-07
2.400857849e-05
9.953640784e-06
1.387672437e-06
9.903799283e-07
2.402668416e-06
6.817888316e-05
3.460444199e-05
0.0001234380632
5.64322794e-05
1.383490746e-06
7.927683884e-06
6.321860417e-05
7.828394896e-05
5.209508941e-05
6.446604212e-05
3.367628639e-05
4.250347663e-05
6.508856188e-05
2.448923938e-05
0.0001064252784
7.496463775e-05
0.0001257307612
7.791073532e-05
0.0001310270118
0.0001287578318
0.0001069228479
0.0001178604825
7.312921306e-05
6.130977446e-05
8.723066224e-05
8.406475065e-05
8.261160611e-05
6.587087685e-05
9.588539698e-05
3.177172508e-05
3.372263807e-05
7.299844907e-06
2.314848549e-05
3.191320092e-07
4.526538261e-07
4.833285125e-07
2.474905268e-05
8.360347754e-05
2.621195446e-06
1.838535661e-05
4.903534022e-05
1.333440817e-05
4.375545115e-06
1.942200678e-05
1.217418748e-05
5.798687926e-05
5.974071677e-06
1.590213195e-05
4.420163355e-05
0.0001088071661
0.0001310776472
9.161094066e-05
9.03023756e-05
0.000130238522
5.394211379e-05
6.162999548e-05
1.672797234e-05
8.044056071e-05
7.744388644e-05
7.41971592e-05
8.000165181e-05
8.272752916e-05
9.847766837e-05
0.0001403432839
0.0001103958048
0.0001003588079
0.0001081403349
0.0001299008594
0.0001146023678
6.614420561e-05
0.0001221824857
5.335004804e-05
4.762554211e-05
1.523007165e-05
5.663460164e-05
5.354940325e-07
7.595823673e-07
8.514059289e-07
8.765523152e-07
6.909733533e-05
7.968657824e-05
9.027547999e-05
9.775389076e-07
3.906371694e-05
7.789328362e-05
9.757260739e-07
5.031366201e-05
1.405687853e-05
8.109742933e-05
1.164025903e-05
3.79363992e-05
0.0001182218012
5.793238598e-05
1.061640307e-05
6.768263728e-05
0.0001424455349
8.560108975e-05
1.262090884e-05
0.0001003271243
8.772306023e-05
8.014485238e-05
0.0001297954838
9.435442682e-05
9.373728804e-05
0.0001427107894
0.0001608809503
3.464395036e-05
0.0001264272262
0.0001723481597
0.0001761041218
0.0001455143077
0.0001527903895
0.0001103068623
7.728088904e-05
2.631911717e-05
3.630031476e-05
1.990586403e-07
3.218080301e-07
4.468934356e-07
4.915905513e-07
1.996687016e-06
3.663444499e-05
8.90500241e-05
5.502639857e-07
2.002335003e-05
3.895693781e-05
2.666873583e-05
2.366174589e-06
5.158346353e-05
1.732450086e-05
4.880291288e-05
1.328347785e-05
4.481440086e-05
8.738442645e-05
5.311616256e-05
8.046022192e-06
7.478280194e-05
0.0001128506391
0.0001354610007
0.0001082966831
0.0001512216504
8.078278151e-05
8.059930063e-05
0.0001019853445
8.501650657e-05
4.417867066e-05
7.250440332e-05
0.0001809326619
0.0001429675129
0.0001692517018
8.335319125e-05
0.0001167344632
0.0001209445091
0.0001185677491
0.0001266078906
6.337697183e-05
1.711068788e-05
7.166963983e-06
8.470364683e-08
1.568733366e-07
1.681742239e-07
6.954838191e-06
1.396996329e-05
1.421213675e-05
1.516153175e-05
1.552201806e-05
3.797044558e-05
3.293927977e-05
2.217309981e-05
3.226801492e-06
7.249035869e-05
5.003579701e-05
9.197073858e-05
1.87513904e-05
9.292247675e-05
5.5222379e-05
0.0001309078863
3.79581578e-05
0.0001107918514
8.849587927e-05
0.0001340781242
6.87945931e-05
6.797053802e-05
8.772788493e-05
8.109559273e-05
7.371676959e-05
9.156787039e-05
3.796576408e-05
4.758167863e-05
6.712226337e-05
0.000119693964
2.083331226e-05
5.283132361e-05
9.116704624e-05
2.355649498e-05
0.0001102666455
8.188196786e-05
7.516169163e-05
4.011213193e-05
4.007888977e-06
3.383806978e-08
8.827819797e-08
1.715768825e-07
2.767150841e-07
4.226346911e-07
2.480525751e-05
3.680606272e-06
3.343798364e-05
9.426877984e-05
7.198837473e-06
8.026514744e-06
1.359957721e-05
6.639567556e-05
0.0001261530557
8.089005169e-05
9.387600849e-05
7.748877974e-05
0.000125833971
8.876542512e-05
1.704593759e-05
7.490527955e-05
5.99863253e-05
0.0001132824288
0.0001047427932
4.266780388e-05
0.0001011664769
8.645600044e-05
0.0001163580437
6.166536474e-05
4.917541366e-05
6.955016636e-05
0.0001058043355
9.978851605e-05
2.153137638e-05
9.504966443e-05
5.104302594e-05
5.812125751e-05
0.0001016765527
0.0001397398018
0.0001089742245
2.534340862e-05
1.228105206e-05
7.90392113e-08
2.880933564e-07
3.677516447e-07
3.840167539e-07
2.470713069e-05
4.663755747e-07
1.033011437e-05
5.799235839e-05
4.845492959e-06
2.539078192e-05
2.879393891e-05
6.071429453e-05
3.464314216e-05
3.248038327e-06
9.450945228e-05
5.730708826e-05
0.0001053885377
9.711781612e-05
4.161296879e-05
2.416039976e-05
7.005227781e-05
7.317029675e-05
9.45069965e-05
0.0001157849723
6.619298652e-05
0.0001236005985
4.983308811e-05
0.0001098285328
6.558457787e-05
9.551024832e-05
7.801566209e-05
1.466432873e-05
8.132037058e-06
3.899551618e-05
9.889916957e-05
0.0001216663714
1.290822526e-05
2.054263172e-05
0.0001536150697
8.089065518e-05
4.367176879e-06
1.77645846e-05
8.351166256e-08
1.261348647e-07
1.153896152e-05
2.498723388e-07
2.658486696e-05
7.131097558e-05
1.061626889e-05
2.640261319e-06
2.196505395e-05
4.542397392e-05
3.880380716e-05
0.0001113877559
0.0001076631831
3.935610099e-05
3.014083992e-05
0.0001059943331
0.0001415477597
0.0001021900509
7.238080008e-05
7.096721861e-05
5.71742333e-05
0.0001189710549
0.000167273064
0.0001240109822
1.114861989e-05
6.907187363e-05
8.214742393e-05
8.110617231e-05
0.0001071915423
0.0001232681676
0.0001421174085
7.943695487e-05
5.586788277e-05
6.688671321e-05
6.397463883e-05
8.370722254e-05
5.746503241e-05
2.617474615e-05
8.811176381e-05
6.095197011e-05
1.001582357e-05
1.547211613e-06
1.128824629e-07
2.573979708e-07
3.432662122e-05
2.13443814e-05
5.587109827e-05
4.587635867e-05
8.824673131e-07
2.409610948e-06
8.263429792e-05
4.677729322e-05
2.352811653e-05
4.942486723e-05
5.486826643e-05
4.440483733e-05
5.470518501e-05
3.459013544e-05
8.385663367e-05
6.476428451e-05
0.0001106396904
6.862166725e-05
4.904665244e-05
0.0001113268168
0.0001212635937
4.853090492e-05
1.871715273e-05
3.180627032e-05
0.0001005480346
7.584405447e-05
7.990917699e-05
0.0001010283422
7.220061253e-05
8.941775528e-05
7.893165924e-05
5.324694862e-05
2.400567011e-05
6.808569475e-05
8.588158156e-05
5.382851316e-05
2.888835721e-05
5.454444263e-05
2.403420534e-05
1.492492187e-05
2.065935968e-07
2.289044425e-05
4.069999534e-07
6.131659793e-05
3.860104524e-05
8.43802167e-06
3.490281235e-05
3.427409333e-05
9.864148109e-07
1.06335972e-06
3.041916712e-05
2.147199657e-05
1.040185157e-05
1.414071305e-05
0.0001065004628
1.897729163e-05
5.887251381e-05
9.194109585e-05
0.0001154533558
7.078354156e-05
9.183743167e-05
0.0001212210664
2.855061012e-05
0.0001192611384
6.509154377e-05
8.039707959e-05
5.19275668e-05
0.0001094063128
0.0001008920585
0.0001182229815
6.252200597e-05
6.163769071e-05
6.135380713e-05
5.437686175e-05
7.69833146e-05
2.039742774e-05
5.650827834e-05
1.330214541e-05
2.304553808e-05
0.0001040997353
5.396505251e-05
1.377539033e-05
9.791775741e-08
3.371536018e-05
7.460915885e-06
3.067452448e-05
6.539160127e-05
6.418520876e-05
8.534166244e-06
3.515411019e-05
4.827981756e-05
3.833748841e-05
8.747923899e-07
4.663260277e-06
2.880200311e-06
5.080811251e-05
2.660339595e-05
5.903883714e-05
0.0001080295052
4.678178805e-05
9.43520672e-05
2.83208408e-05
3.299502697e-05
6.387769156e-05
0.0001346092219
2.211830512e-05
6.492376698e-05
5.444893353e-05
0.0001036319983
0.000103922908
5.049957754e-05
8.873962468e-05
0.0001172109533
0.0001483670493
0.0001562952476
9.325073647e-05
0.0001256339086
8.120476533e-05
6.614408239e-05
6.989764795e-05
5.632933795e-05
6.682689629e-05
1.759985463e-05
4.941025526e-22
5.370620439e-09
1.514283902e-07
2.302966789e-07
4.730360468e-05
3.076593694e-05
2.103705896e-05
7.111865749e-05
2.345723356e-05
2.018981925e-05
0.0001032346672
1.048611756e-05
4.230010758e-05
4.357018046e-05
7.596175087e-05
1.890996955e-05
5.866701419e-06
7.422564787e-05
8.169341407e-05
7.180000743e-06
1.444460446e-05
7.07843251e-05
0.0001030721958
0.0001163297871
7.84184644e-05
6.541942211e-05
6.781152188e-05
8.056936192e-05
2.074965231e-05
2.349115347e-05
0.0001078333029
0.0001452072456
0.0001647577975
0.0001301605178
0.0001796020862
3.911752329e-05
0.0001161724971
7.612655046e-05
0.0001151167688
1.686772532e-05
5.861832551e-05
3.395044899e-05
2.127991703e-05
3.223979171e-07
2.470942273e-05
5.441826499e-05
4.746881521e-06
4.048917343e-07
5.091056348e-07
1.13323313e-05
8.426435379e-05
3.823667678e-05
1.395016805e-05
6.506446449e-05
2.486124391e-05
5.02644748e-05
9.616957345e-05
2.250801378e-06
5.907289987e-06
0.0001236793648
1.572465091e-05
3.525312116e-05
1.746819037e-05
3.18814349e-05
4.23218076e-05
7.920584602e-06
7.440448665e-05
0.000129077947
0.0001284206889
5.710639843e-05
2.949977961e-05
5.742801731e-05
2.523342042e-05
0.0001374552266
0.0001350540699
0.0001484886463
5.244409113e-05
1.841543188e-05
7.914112917e-05
9.774234507e-05
0.0001029365021
6.739349772e-05
8.286562965e-05
1.935494069e-05
8.398750444e-07
1.285133215e-05
2.530150132e-05
3.260607589e-07
4.786816682e-07
4.391027257e-07
5.727417278e-07
3.592185544e-05
5.328904318e-05
2.340310747e-05
5.614377834e-05
1.77449848e-05
6.097343455e-05
9.11561263e-05
5.517312327e-05
1.268770716e-05
9.403397104e-05
6.197694954e-05
4.370911392e-05
3.005504965e-05
2.488934005e-05
7.584254693e-05
6.70327546e-05
1.739682188e-05
6.898951781e-05
9.578845508e-05
0.0001058457568
7.431329163e-05
0.0001277101982
3.04626235e-05
0.000139488743
9.653661961e-05
2.39156569e-05
0.0001094205807
0.0001083872021
9.337820204e-05
4.940610565e-05
6.110802551e-05
6.362790175e-05
8.315772135e-05
7.280786177e-05
3.161878915e-05
3.984161725e-06
1.977924696e-05
2.042895755e-07
2.295935103e-07
2.559126562e-07
2.954168141e-07
6.304502981e-05
5.886876042e-07
5.60118732e-05
8.059575927e-06
6.52478324e-07
5.120545515e-05
7.572622353e-05
9.652932489e-05
9.787409359e-05
6.707620028e-05
0.0001418442351
3.118005255e-05
2.311491381e-05
1.436056195e-05
7.495856268e-05
2.330337572e-05
0.0001016417448
4.138021206e-05
2.861617126e-05
8.600451448e-05
0.0001153456381
0.0001353331039
5.60474966e-05
6.863399796e-05
0.0001156325843
4.323596806e-05
5.540600777e-05
5.808459826e-05
0.0001305538692
0.0001282809457
2.386640122e-05
5.808296236e-05
6.273009757e-05
9.222876055e-05
8.167108218e-05
2.625177338e-05
1.134708644e-05
7.101388196e-08
1.050318026e-07
3.4360755e-07
5.436442645e-07
6.964375248e-06
3.526320375e-06
4.866417681e-07
7.002786295e-07
7.194533228e-06
6.700220232e-05
3.005160583e-05
6.851762925e-05
7.954505773e-05
6.686892891e-05
2.467211482e-05
5.176146898e-05
6.160197986e-05
4.776147161e-05
7.381288708e-05
8.27886168e-05
1.996694771e-05
2.171974928e-05
8.199461694e-06
1.099077644e-05
7.469985721e-05
8.91358241e-05
4.668986616e-05
3.389427275e-05
0.0001224340537
0.0001176984751
9.800619749e-05
0.0001308627928
0.0001017285242
0.0001039483351
0.0001173317029
6.368595799e-05
0.0001407851005
1.304761316e-05
3.98323144e-05
3.352393559e-05
2.011843548e-05
8.074188185e-06
3.858969319e-08
2.321989849e-07
4.435297575e-07
6.173656309e-07
2.135563261e-06
1.010610718e-06
7.714796521e-07
1.135606858e-06
1.231080262e-06
8.099852868e-06
2.048064602e-05
5.829422581e-05
8.201852574e-05
2.843624981e-05
2.667461082e-05
1.803316599e-05
3.09837631e-05
4.363882096e-05
4.946475177e-05
9.612572249e-05
7.522547261e-05
0.0001118221035
1.639836208e-05
6.253941613e-05
8.305667754e-05
0.0001612066852
0.0001341706333
0.0001425003006
0.0001352173251
7.68255429e-05
8.16881026e-05
2.414149881e-05
0.0001615796673
5.753935231e-05
0.0001392492244
8.890483954e-05
3.227771424e-05
7.787951742e-05
9.118394463e-05
2.738497149e-05
2.057731148e-05
1.214552894e-05
1.738023291e-05
3.253851692e-07
6.355841141e-07
8.385088729e-07
4.750802394e-07
1.737205982e-06
2.454445263e-05
4.782836667e-05
3.11132815e-05
4.36353079e-06
1.174844877e-05
0.0001074728727
4.094195858e-05
2.145750056e-05
9.258142204e-05
5.540631056e-05
2.105705847e-05
9.594041502e-05
0.0001156358919
8.331038397e-05
5.679893507e-05
5.02138472e-05
0.0001187794369
0.0001070652008
0.0001054464648
0.000122341167
0.0001344018471
0.0001032705298
7.424714566e-05
5.933450388e-05
0.0001405280103
5.122291831e-05
5.757661696e-05
1.745912117e-05
7.291096818e-05
5.44676621e-05
4.550841763e-05
7.976363591e-05
0.000164931222
8.639405658e-05
1.714259846e-05
2.718428266e-05
4.224463934e-05
5.593711509e-05
2.997286216e-05
4.946989392e-07
1.608555826e-05
6.665335127e-05
6.632654568e-05
5.230445299e-05
2.112101553e-05
8.775144826e-07
2.786165271e-05
7.71751252e-05
3.53539749e-05
3.933098268e-05
1.918105858e-05
9.405988612e-05
5.154419254e-05
0.0001021205569
5.720694781e-05
1.038731277e-05
5.373371428e-05
5.000722421e-05
0.0001018229215
0.0001189258813
0.0001478420775
6.878036028e-05
3.721543534e-05
4.528566621e-05
3.115751434e-05
4.517888625e-05
3.876536437e-05
9.553808999e-05
8.908890284e-05
7.30660296e-05
8.24343872e-06
2.924246185e-05
3.977529549e-05
5.666361785e-05
0.0001159667752
9.919175153e-06
2.089350216e-05
7.079807098e-06
1.929130986e-05
8.810316056e-08
1.311815988e-07
1.783408986e-07
1.560282358e-05
6.092578839e-05
7.114614286e-05
8.655278482e-05
1.509783896e-05
2.113240349e-05
3.728785613e-05
2.240022927e-05
3.903666312e-05
5.945041065e-05
6.003805798e-05
7.021565175e-05
1.180117736e-05
8.536242174e-06
1.4255225e-05
2.740156865e-05
8.22782258e-05
5.384133324e-05
6.260212436e-05
0.0001601791737
0.0001324021658
0.0001492962612
6.037168479e-05
6.606597419e-05
5.463326889e-05
0.0001576300608
2.719964354e-05
1.02946487e-05
0.000107750359
0.0001223627458
1.787417824e-05
7.058546411e-05
8.641017798e-05
0.0001677360666
0.0001051958615
6.345888498e-05
1.859071786e-05
3.405808102e-05
4.636903796e-05
5.520490645e-06
3.057023473e-07
3.774720308e-07
2.462151052e-05
8.051980676e-06
2.215263865e-05
1.093331537e-05
4.561713231e-05
5.862591155e-05
6.280674543e-05
1.014057714e-06
2.004957182e-06
8.406064194e-05
0.0001140167204
3.101451234e-06
1.002309858e-05
2.957799099e-05
2.185094574e-05
7.160704964e-05
5.443831295e-05
0.0001167921205
0.0001371744123
8.203922671e-05
0.0001045746078
8.101953795e-05
0.0001316674977
3.417973498e-05
6.900693982e-05
7.035838563e-05
5.732464243e-05
6.102099806e-05
0.0001115228117
1.664309814e-05
5.758042585e-05
7.410224181e-05
0.0001015326964
8.840321756e-05
0.0001033969941
5.267448965e-05
7.809703969e-05
2.24740269e-05
1.07487299e-07
3.935946075e-05
3.726767307e-07
3.636645535e-07
3.772446098e-05
4.307419679e-07
7.219372658e-07
1.411104542e-05
9.115026364e-05
7.078307356e-05
5.67816244e-05
3.357726965e-05
3.385536493e-05
5.234595352e-05
1.238111807e-05
3.740659656e-06
5.473256197e-05
5.261836602e-05
6.599740949e-05
7.529529703e-05
7.761343777e-05
0.0001608338242
0.0001095979756
8.368266697e-05
5.904540674e-06
4.025821293e-06
6.359124912e-05
0.0001146186079
6.294782921e-05
4.805408954e-05
0.0001165269668
0.00014044176
7.206072786e-05
9.205164341e-05
0.0001068107859
0.0001507664621
0.0001541174448
0.0001057092755
5.581499286e-05
9.634530087e-05
3.541425779e-05
6.909540801e-06
3.481688375e-08
1.636261937e-05
1.193904841e-07
1.68930262e-05
2.676998577e-07
3.175625469e-07
3.762320477e-05
6.686465068e-05
7.149360751e-05
3.718834371e-05
4.028380407e-05
4.228449644e-05
4.956894059e-05
3.706485067e-05
2.596642695e-05
9.863587664e-06
0.0001392245183
6.448762379e-05
6.960500766e-05
2.563181054e-05
2.147072844e-05
7.479227187e-05
5.262580619e-05
2.542774412e-05
8.853995583e-05
4.383827973e-05
5.313663763e-05
0.0001240269955
5.053482318e-05
5.902498099e-05
4.704034099e-05
0.0001174667373
6.859635715e-05
7.797137401e-05
7.405303094e-05
7.98275036e-05
0.000174324322
7.918607924e-05
8.923586964e-05
5.587336732e-05
2.693596192e-05
7.51688406e-06
1.487352471e-07
4.42640153e-05
5.9744409e-07
2.785446592e-05
5.588767245e-07
1.252313785e-05
3.099245276e-05
3.878731836e-05
8.325486384e-05
3.731527151e-05
3.199332839e-05
4.81259233e-05
6.570030074e-05
6.55909909e-05
8.295330357e-05
5.393750672e-05
8.445406245e-05
6.361273978e-05
2.015127542e-05
1.035670603e-05
2.927910134e-05
7.290256047e-05
2.592679092e-05
2.925684782e-05
6.040946904e-05
3.946933384e-05
2.724974931e-05
1.960883205e-05
9.905962292e-05
4.455949475e-05
8.81681875e-05
7.188006001e-05
6.392415461e-05
1.196413914e-05
1.524753757e-05
0.0001007090216
0.0001506608596
7.398308027e-05
3.973578358e-05
0.0001011118851
2.765932521e-05
6.287490264e-06
2.59629852e-08
1.081177479e-05
1.951451548e-05
2.239020314e-07
2.894439033e-07
3.785129051e-07
2.203946069e-06
3.029148541e-05
7.809674619e-05
6.977410152e-05
0.0001009510755
5.28129465e-05
6.116937732e-06
4.095768213e-06
1.931512009e-05
1.659463572e-05
8.62358015e-05
9.434309813e-06
5.959109191e-05
6.190298037e-05
5.009431491e-05
3.184789043e-05
2.708650953e-05
2.274783967e-05
1.833835362e-05
6.831852732e-05
1.740056941e-05
6.208453257e-05
0.0001198153461
7.320972128e-05
9.417237133e-05
0.000114670486
0.0001408146094
8.477375467e-05
2.953561139e-05
4.807579239e-05
7.521919491e-05
0.0001396105214
9.016037817e-05
0.0001154526466
6.168063613e-05
1.832792077e-06
6.940009878e-09
9.717381847e-08
3.08005651e-07
4.285395767e-07
1.848755901e-06
8.091406398e-06
3.586053193e-06
7.149933322e-05
8.562659781e-06
7.051167176e-05
0.0001203853952
5.544305997e-05
2.853102474e-05
2.176847878e-05
1.23108183e-05
4.29053266e-05
9.942088665e-05
0.0001153377584
3.028822189e-05
1.265728842e-05
2.276247652e-05
6.150207942e-06
8.067741e-05
0.0001096721406
2.512659608e-05
3.093868149e-05
0.0001009410915
9.628688066e-05
0.0001315485275
3.955460702e-05
0.0001233796415
8.497371264e-05
2.401904145e-05
0.0001303347562
0.0001537500649
0.0001136079608
0.0001012548172
0.0001058722086
7.806355739e-05
7.22332088e-05
2.70921318e-05
1.884860932e-05
1.583556525e-07
2.33833249e-07
3.694527159e-07
3.770281088e-07
3.312305413e-05
4.122289947e-07
2.059261829e-06
4.798369113e-05
4.716640415e-05
6.694580602e-05
7.010480697e-05
5.991169963e-06
4.067273367e-05
2.364790155e-05
4.777484576e-06
7.063290618e-05
7.570469715e-06
9.996771939e-05
6.610062767e-05
5.661152081e-05
0.000126979265
7.324842334e-05
0.0001140736027
5.173843673e-05
7.991684066e-05
0.0001644262836
6.492747749e-05
2.250959133e-05
9.591863035e-05
7.197828984e-05
8.916561686e-05
6.281676491e-05
0.0001511349686
0.0001638354724
0.0001375068134
4.760857415e-05
3.197668893e-05
8.575752445e-05
4.009841314e-05
2.972062807e-05
1.171808222e-05
3.000694648e-06
4.517509052e-21
7.783071206e-08
7.936901918e-08
3.185636138e-07
5.054087859e-07
4.988858722e-05
5.33468638e-07
4.416455189e-05
4.403559614e-05
4.382454854e-05
1.736443559e-05
1.977100905e-05
1.397359307e-05
4.166328048e-05
0.0001012459857
2.771025428e-05
4.297752292e-05
5.46374878e-05
2.650351597e-05
9.51053475e-05
5.023848131e-06
1.601966066e-06
9.512548631e-05
0.0001148799515
6.698010122e-05
0.000183722986
5.641364594e-05
4.238350684e-05
7.911626295e-05
9.46539067e-05
0.0001929466308
0.0001703172414
0.0001302585856
0.0001027394902
0.0001330177683
6.92513269e-05
6.104091008e-05
5.311271544e-05
6.555022935e-05
4.051874597e-05
6.475931001e-05
1.443769794e-05
2.268186204e-07
2.941527147e-07
4.162514796e-07
4.342471085e-06
1.345104925e-06
6.339618899e-05
3.154271795e-05
7.168596824e-05
1.22177891e-05
1.479910466e-06
2.265636636e-05
4.96789908e-06
6.563559168e-05
9.228088687e-05
6.054340607e-05
6.528364647e-05
2.665111538e-05
7.600068655e-05
2.073776352e-05
8.378608701e-05
3.604185673e-05
1.022497357e-05
8.501399648e-06
0.0001088088757
4.994850723e-05
1.648168728e-05
2.925593122e-05
2.93295181e-05
2.541555482e-05
9.689716255e-05
7.107832932e-05
9.324707304e-05
8.982152238e-05
0.0001097912731
0.0001405020844
3.548201322e-05
0.0001229265326
7.875239681e-05
5.752718344e-05
3.020468358e-05
4.341407468e-05
1.536154409e-05
2.239067232e-07
2.52792782e-07
4.06338066e-07
4.97271731e-07
3.614826027e-05
7.887297461e-06
1.49177732e-06
1.426660848e-06
8.390051092e-07
4.367702538e-06
9.785461615e-06
6.20797333e-05
5.015843461e-05
8.741345969e-05
1.865800861e-05
5.769311418e-05
2.663708052e-05
4.745089155e-05
1.023811407e-05
3.022977879e-05
3.464053274e-05
1.719750231e-05
5.198220255e-05
6.166516956e-05
9.774174741e-05
7.798764018e-05
6.073298966e-05
2.231074215e-05
1.748115334e-05
4.242176871e-05
6.716950954e-05
6.239738571e-06
4.216786175e-06
9.869337668e-05
7.556820966e-05
0.000113321561
0.0001020906098
3.763305062e-05
7.252155738e-05
2.610284442e-05
1.798731386e-06
2.823443158e-22
5.928366656e-08
9.206879031e-08
6.944343246e-08
3.706532917e-05
1.194443771e-05
3.946738784e-05
4.27873147e-05
5.31241107e-07
4.467611619e-05
7.424786799e-05
1.392679002e-05
6.99212195e-05
2.904734776e-05
1.728146901e-06
8.153846195e-06
4.19091613e-06
1.023995116e-06
1.053196999e-05
8.16248831e-06
2.829650191e-05
2.289638519e-05
0.0001000101959
6.160619236e-05
9.659268768e-05
0.0001294290623
5.991092363e-06
1.613711141e-06
5.568686381e-06
2.61782262e-05
2.5713784e-06
2.020332258e-05
1.848564924e-05
9.526573859e-06
3.582569498e-05
2.074837642e-05
7.02153029e-05
0.0001562988032
8.013040083e-06
1.564848484e-05
1.811999576e-05
1.816642197e-05
6.050086708e-06
8.880168055e-06
1.753282434e-06
1.81064272e-05
6.239975223e-05
5.461110051e-05
5.032856209e-05
7.782297648e-05
0.0001502473391
0.0001372951295
0.0001055171739
0.0001477626842
0.0001654563387
7.691405105e-05
0.0001358607314
0.0001365974659
0.0001452387462
0.00010013787
0.000105032149
0.0001277792689
0.0001382305094
4.5504814e-05
0.0001078302059
0.0001388058225
0.0001185841432
0.0002047485777
0.0002638506178
0.0001906564716
7.590283567e-05
3.191673345e-05
7.6085313e-05
7.607131834e-05
0.0001088687252
8.127375124e-05
9.674342908e-05
6.622088803e-05
6.666036357e-05
0.0001007278246
5.155181327e-05
9.136008591e-05
4.72029961e-05
4.342052966e-05
2.371384174e-05
5.021570668e-05
7.541509635e-05
8.257462629e-05
0.0001202803643
0.0001333670051
0.0001367365557
0.0001314072645
0.0001376946929
0.0001607955687
0.0001109513449
0.0001343490016
0.0001546355935
0.000128297061
0.0001271502111
0.0001630409936
0.0002017352975
0.0001495176853
0.0001665006596
0.0001952989517
0.0001670135611
0.0001864806793
0.0001351374121
0.0001851189948
0.0001662944436