/*--------------------------------*- C++ -*----------------------------------*\
| =========                 |                                                 |
| \\      /  F ield         | OpenFOAM: The Open Source CFD Toolbox           |
|  \\    /   O peration     | Version:  v1706                                 |
|   \\  /    A nd           | Web:      www.OpenFOAM.com                      |
|    \\/     M anipulation  |                                                 |
\*---------------------------------------------------------------------------*/
FoamFile
{
    version     2.0;
    format      ascii;
    class       volScalarField;
    location    "3.989";
    object      rhoM_O2;
}
// * * * * * * * * * * * * * * * * * * * * * * * * * * * * * * * * * * * * * //

dimensions      [1 -3 0 0 0 0 0];


internalField   nonuniform List<scalar> 
50792
(
2.093206662e-12
1.518405468e-11
2.830812819e-11
7.874444111e-12
9.037336701e-12
1.202763193e-11
8.871209188e-12
1.717758483e-11
1.830725192e-11
1.505115267e-11
2.565008799e-11
2.113141964e-11
3.086649189e-11
2.624814704e-11
2.166302768e-11
3.714611188e-11
2.814200068e-11
3.060068787e-11
2.611524502e-11
2.903908925e-11
3.036810935e-11
2.96039228e-11
3.269389453e-11
3.262744353e-11
3.242809051e-11
3.123197242e-11
6.18991113e-11
4.412346742e-11
3.860803399e-11
4.159832923e-11
4.671505662e-11
3.418904215e-11
3.169712946e-11
3.159745295e-11
4.804407673e-11
3.48867777e-11
3.47871012e-11
3.628224881e-11
3.455452268e-11
3.442162067e-11
3.764449442e-11
3.764449442e-11
1.249278897e-11
3.156422745e-12
3.754481791e-12
4.884148879e-12
6.246394484e-12
8.472503157e-12
1.584856473e-11
2.578299e-11
1.54166332e-11
2.531783296e-11
2.05998116e-11
2.741103963e-11
2.658040206e-11
2.219463572e-11
2.302527329e-11
2.830812819e-11
2.153012567e-11
2.903908925e-11
2.771006915e-11
3.445484617e-11
3.634869982e-11
4.222961377e-11
4.149865272e-11
2.977005031e-11
2.747749063e-11
2.043368408e-11
2.668007857e-11
2.638104905e-11
2.658040206e-11
3.711288638e-11
3.020198184e-11
4.412346742e-11
3.319227707e-11
2.691265709e-11
3.325872808e-11
3.408936564e-11
3.113229591e-11
4.791117471e-11
4.173123124e-11
3.286002205e-11
2.933811877e-11
2.857393222e-11
2.990295232e-13
1.628049626e-12
3.688030786e-12
3.987060309e-12
5.017050889e-12
6.080266971e-12
2.721168661e-11
1.066538633e-11
1.089796484e-11
2.06994881e-11
1.272536749e-11
1.448631912e-11
1.857305594e-11
1.880563446e-11
2.249366524e-11
1.897176197e-11
2.136399816e-11
3.196293348e-11
2.604879402e-11
2.538428397e-11
3.060068787e-11
3.335840459e-11
2.887296174e-11
3.47871012e-11
2.943779528e-11
2.953747179e-11
3.402291464e-11
3.697998437e-11
3.432194416e-11
2.983650131e-11
3.412259115e-11
5.711463893e-11
3.598321929e-11
3.139809993e-11
4.12992997e-11
3.123197242e-11
2.824167719e-11
2.777652015e-11
3.428871866e-11
2.874005973e-11
4.325960435e-11
3.761126892e-11
2.359010683e-12
1.661275129e-12
3.08997174e-12
4.418991843e-12
5.41575692e-12
7.807993105e-12
9.402817229e-12
9.834748763e-12
1.721081033e-11
1.2891495e-11
2.06330371e-11
2.624814704e-11
1.498470166e-11
1.747661436e-11
1.927079149e-11
1.80414479e-11
3.757804341e-11
2.239398874e-11
3.073358988e-11
4.438927144e-11
3.963802457e-11
4.060156415e-11
2.515170545e-11
2.927166777e-11
2.471977392e-11
2.219463572e-11
2.977005031e-11
3.638192532e-11
3.179680597e-11
3.09661684e-11
4.080091716e-11
4.066801515e-11
4.289412383e-11
2.787619666e-11
2.933811877e-11
2.545073497e-11
2.721168661e-11
2.744426513e-11
4.020285812e-11
3.900674002e-11
3.302614956e-11
2.515170545e-11
4.452217345e-12
2.624814704e-12
9.336366224e-12
1.239311246e-11
1.192795542e-11
1.053248432e-11
2.050013509e-11
1.348955405e-11
2.398881286e-11
1.505115267e-11
2.435429339e-11
1.737693785e-11
2.106496863e-11
2.133077265e-11
1.840692843e-11
2.222786122e-11
3.003585433e-11
1.966949753e-11
2.289237127e-11
2.721168661e-11
2.45536464e-11
3.668095484e-11
3.913964203e-11
3.528548374e-11
3.063391338e-11
4.624989959e-11
3.900674002e-11
2.58162155e-11
3.365743411e-11
4.521990901e-11
4.013640711e-11
4.086736817e-11
4.176445674e-11
2.864038322e-11
3.525225823e-11
2.422139138e-11
2.96371483e-11
3.086649189e-11
3.684708236e-11
3.239486501e-11
3.438839517e-11
3.209583549e-11
1.262569098e-12
2.425461688e-12
4.020285812e-12
4.850923376e-12
1.226021045e-11
7.641865593e-12
1.023345479e-11
2.040045858e-11
2.083239012e-11
1.511760367e-11
1.54166332e-11
2.036723308e-11
1.395471108e-11
1.857305594e-11
1.893853647e-11
2.216141022e-11
1.754306536e-11
1.770919287e-11
2.06662626e-11
2.784297116e-11
2.372300884e-11
4.38908889e-11
3.046778586e-11
3.804320045e-11
2.392236185e-11
2.624814704e-11
2.947102079e-11
3.930576955e-11
4.173123124e-11
3.149777644e-11
3.09329429e-11
3.492000321e-11
4.352540837e-11
3.594999379e-11
3.428871866e-11
2.820845169e-11
2.465332291e-11
2.97035993e-11
2.844103021e-11
3.664772934e-11
4.173123124e-11
2.45204209e-11
8.107022629e-12
7.641865593e-13
8.306375644e-13
2.824167719e-12
3.920609304e-12
7.143483054e-12
1.169537691e-11
6.346070992e-12
1.249278897e-11
1.342310304e-11
1.468567214e-11
1.54166332e-11
2.106496863e-11
1.488502515e-11
1.634694727e-11
1.707790832e-11
2.525138196e-11
2.807554968e-11
3.289324755e-11
3.797674944e-11
4.080091716e-11
2.70455591e-11
2.757716714e-11
2.684620608e-11
3.266066903e-11
3.362420861e-11
4.452217345e-11
4.139897621e-11
3.545161125e-11
2.933811877e-11
2.947102079e-11
2.119787064e-11
3.003585433e-11
2.242721424e-11
2.44871954e-11
2.551718598e-11
3.528548374e-11
3.442162067e-11
3.35577576e-11
3.927254404e-11
4.492087948e-11
3.508613072e-11
6.312845489e-13
2.05998116e-12
5.116727397e-12
7.841218608e-12
9.66862125e-12
1.481857415e-11
1.412083859e-11
1.737693785e-11
1.554953521e-11
2.222786122e-11
2.103174313e-11
1.893853647e-11
2.179592969e-11
2.342397932e-11
2.880651073e-11
3.199615898e-11
2.953747179e-11
2.864038322e-11
3.428871866e-11
3.365743411e-11
3.840868098e-11
4.146542721e-11
3.711288638e-11
3.472065019e-11
3.392323813e-11
5.41907947e-11
4.12328487e-11
3.402291464e-11
2.727813761e-11
3.508613072e-11
3.807642595e-11
3.531870924e-11
3.000262883e-11
3.757804341e-11
3.056746237e-11
2.671330407e-11
3.153100194e-11
3.013553084e-11
3.654805283e-11
2.824167719e-11
3.462097368e-11
3.701320987e-11
1.02999058e-12
3.787707294e-12
7.841218608e-12
5.54865893e-12
6.844453531e-12
7.176708556e-12
1.006732728e-11
1.990207604e-11
1.528373119e-11
2.123109615e-11
1.81078989e-11
2.209495921e-11
2.06994881e-11
2.232753773e-11
2.83745792e-11
2.385591085e-11
2.478622492e-11
2.511847995e-11
2.907231475e-11
3.369065961e-11
2.734458862e-11
4.575151705e-11
3.146455094e-11
3.953834807e-11
2.990295232e-11
2.561686249e-11
2.850748121e-11
3.2195512e-11
3.561773876e-11
4.77118217e-11
8.376149199e-11
5.1632431e-11
4.561861504e-11
3.807642595e-11
3.664772934e-11
4.658215461e-11
3.917286754e-11
5.02369599e-11
3.880738701e-11
2.854070671e-11
4.528636001e-11
2.771006915e-11
2.392236185e-12
2.259334175e-12
7.774767603e-12
4.718021366e-12
7.7415421e-12
1.219375945e-11
1.684532981e-11
1.2891495e-11
1.309084801e-11
1.837370292e-11
1.873918345e-11
2.242721424e-11
1.960304652e-11
1.844015393e-11
2.478622492e-11
1.535018219e-11
1.910466398e-11
1.601469224e-11
2.182915519e-11
2.368978334e-11
2.990295232e-11
3.056746237e-11
2.202850821e-11
3.183003147e-11
2.382268535e-11
2.388913635e-11
2.890618724e-11
2.844103021e-11
3.641515082e-11
5.811140401e-11
2.32246263e-11
2.754394164e-11
1.893853647e-11
4.395733991e-11
2.475299942e-11
2.498557794e-11
2.352365582e-11
3.020198184e-11
3.345808109e-11
3.076681539e-11
3.681385685e-11
2.684620608e-11
2.890618724e-12
7.641865593e-13
4.983825386e-12
1.661275129e-12
3.820932796e-12
6.146717977e-12
8.738307178e-12
1.335665204e-11
2.565008799e-11
1.704468282e-11
1.953659551e-11
1.491825066e-11
2.5849441e-11
2.159657667e-11
3.621579781e-11
2.335752831e-11
2.983650131e-11
2.342397932e-11
2.32246263e-11
2.256011625e-11
2.116464514e-11
3.372388511e-11
3.369065961e-11
2.943779528e-11
2.146367466e-11
2.515170545e-11
2.571653899e-11
2.953747179e-11
3.511935622e-11
3.528548374e-11
2.820845169e-11
2.794264767e-11
2.903908925e-11
2.850748121e-11
3.787707294e-11
2.658040206e-11
2.242721424e-11
3.063391338e-11
3.74451414e-11
2.518493095e-11
2.731136312e-11
2.043368408e-11
1.993530155e-12
8.007346121e-12
5.980590464e-12
6.213168982e-12
8.505728659e-12
9.66862125e-12
1.348955405e-11
1.432019161e-11
1.588179023e-11
1.80746734e-11
2.246043974e-11
3.083326639e-11
2.83413537e-11
4.060156415e-11
2.820845169e-11
2.242721424e-11
2.548396048e-11
3.259421803e-11
3.525225823e-11
3.581709178e-11
3.837545548e-11
3.083326639e-11
3.202938448e-11
3.674740585e-11
3.332517908e-11
4.093381917e-11
3.641515082e-11
4.704731165e-11
3.425549316e-11
4.279444732e-11
4.026930912e-11
4.013640711e-11
4.312670234e-11
3.674740585e-11
3.382356162e-11
3.585031728e-11
4.033576013e-11
4.033576013e-11
3.538516024e-11
4.050188764e-11
3.515258173e-11
3.216228649e-11
1.647984928e-11
6.910904536e-12
5.349305915e-12
7.209934059e-12
8.90443469e-12
1.199440643e-11
2.880651073e-11
1.405438759e-11
1.558276071e-11
2.106496863e-11
1.724403584e-11
1.711113383e-11
1.983562504e-11
1.920434049e-11
2.661362756e-11
2.086561562e-11
2.435429339e-11
2.864038322e-11
4.319315335e-11
4.824342974e-11
4.116639769e-11
4.219638827e-11
4.910729281e-11
3.591676828e-11
3.518580723e-11
3.425549316e-11
4.495410499e-11
4.12328487e-11
3.757804341e-11
4.425636943e-11
4.744601768e-11
4.837633175e-11
5.93407476e-11
5.578561883e-11
5.392499068e-11
5.236339206e-11
4.993793037e-11
4.286089832e-11
3.425549316e-11
4.119962319e-11
3.036810935e-11
3.179680597e-11
2.531783296e-11
1.817434991e-11
7.276385064e-12
9.635395747e-12
1.116376887e-11
1.196118093e-11
2.086561562e-11
2.764361814e-11
3.202938448e-11
1.315729902e-11
1.956982102e-11
2.362333233e-11
1.488502515e-11
2.126432165e-11
1.966949753e-11
3.056746237e-11
2.169625318e-11
2.794264767e-11
3.960479907e-11
3.119874692e-11
2.687943158e-11
3.192970798e-11
5.179855852e-11
3.588354278e-11
2.691265709e-11
4.203026076e-11
4.143220171e-11
3.824255347e-11
5.136662698e-11
4.236251578e-11
4.455539895e-11
5.179855852e-11
5.578561883e-11
3.408936564e-11
4.418991843e-11
5.439014772e-11
5.661625639e-11
6.010493416e-11
5.701496242e-11
4.555216403e-11
3.764449442e-11
2.671330407e-11
3.269389453e-11
5.41575692e-12
8.572179665e-12
8.837983685e-12
1.063216082e-11
1.368890706e-11
1.870595795e-11
2.980327581e-11
1.432019161e-11
1.614759425e-11
1.701145732e-11
1.618081975e-11
1.621404526e-11
2.44871954e-11
1.907143848e-11
2.136399816e-11
1.907143848e-11
2.352365582e-11
2.824167719e-11
2.418816588e-11
2.043368408e-11
3.043456036e-11
3.827577897e-11
4.704731165e-11
3.834222997e-11
4.538603652e-11
3.35909831e-11
3.541838575e-11
3.804320045e-11
3.392323813e-11
3.109907041e-11
3.701320987e-11
5.857656104e-11
5.090146995e-11
5.864301205e-11
3.817610246e-11
3.957157357e-11
4.013640711e-11
4.070124066e-11
4.163155473e-11
3.362420861e-11
2.751071613e-11
5.54865893e-12
2.890618724e-12
4.319315335e-12
4.684795863e-12
7.143483054e-12
1.056570982e-11
1.073183733e-11
1.249278897e-11
1.461922113e-11
1.844015393e-11
1.850660493e-11
2.013465456e-11
1.830725192e-11
2.631459804e-11
2.624814704e-11
3.405614014e-11
2.222786122e-11
3.156422745e-11
2.860715772e-11
4.521990901e-11
3.143132544e-11
4.090059367e-11
3.531870924e-11
4.737956667e-11
3.2195512e-11
2.97035993e-11
3.528548374e-11
3.545161125e-11
3.365743411e-11
3.618257231e-11
2.471977392e-11
2.561686249e-11
3.139809993e-11
3.844190648e-11
2.638104905e-11
3.202938448e-11
3.668095484e-11
2.558363698e-11
3.830900447e-11
3.568418977e-11
3.472065019e-11
3.116552142e-11
4.418991843e-12
1.727726134e-12
2.923844227e-12
5.482207925e-12
8.239924639e-12
1.116376887e-11
1.634694727e-11
1.737693785e-11
2.099851763e-11
3.063391338e-11
2.050013509e-11
2.089884112e-11
2.212818472e-11
2.724491211e-11
4.153187822e-11
3.136487443e-11
3.455452268e-11
3.176358046e-11
4.156510372e-11
3.385678713e-11
2.614847053e-11
3.259421803e-11
3.2195512e-11
4.279444732e-11
4.372476139e-11
3.375711062e-11
4.498733049e-11
4.359185938e-11
4.801085122e-11
3.797674944e-11
3.585031728e-11
3.900674002e-11
4.209671176e-11
4.12328487e-11
3.206260999e-11
4.12660742e-11
3.508613072e-11
3.751159241e-11
4.349218287e-11
5.110082296e-11
4.266154531e-11
2.96703738e-11
1.089796484e-11
2.32578518e-12
5.54865893e-12
8.239924639e-12
9.269915219e-12
1.438664262e-11
1.083151384e-11
1.265891648e-11
2.030078207e-11
1.558276071e-11
1.900498747e-11
2.093206662e-11
2.295882228e-11
2.053336059e-11
1.840692843e-11
3.342485559e-11
2.724491211e-11
3.591676828e-11
3.272712004e-11
2.531783296e-11
2.249366524e-11
2.927166777e-11
2.870683423e-11
3.279357104e-11
4.269477081e-11
3.166390396e-11
4.329282986e-11
2.71120101e-11
4.016963261e-11
2.807554968e-11
3.309260057e-11
3.415581665e-11
2.302527329e-11
2.359010683e-11
2.910554026e-11
3.933899505e-11
4.488765398e-11
2.342397932e-11
2.412171487e-11
5.086824444e-11
3.34913066e-11
2.475299942e-11
6.013815966e-12
3.953834807e-12
4.452217345e-12
7.807993105e-12
6.778002526e-12
1.16621514e-11
2.139722366e-11
1.305762251e-11
1.335665204e-11
1.757629086e-11
2.375623434e-11
2.45204209e-11
3.903996553e-11
3.561773876e-11
2.458687191e-11
2.648072555e-11
3.787707294e-11
4.531958551e-11
3.983737759e-11
3.272712004e-11
3.452129718e-11
3.269389453e-11
4.339250636e-11
5.169888201e-11
4.063478965e-11
2.70455591e-11
3.648160183e-11
3.428871866e-11
3.757804341e-11
4.103349568e-11
4.458862446e-11
4.5087007e-11
3.312582607e-11
2.940456978e-11
2.983650131e-11
3.023520734e-11
3.179680597e-11
2.84078047e-11
2.501880344e-11
3.379033612e-11
2.983650131e-11
2.339075381e-11
6.312845489e-13
2.658040206e-12
5.41575692e-12
1.226021045e-11
1.179505341e-11
1.80746734e-11
2.06330371e-11
1.734371234e-11
1.917111499e-11
3.036810935e-11
2.405526387e-11
2.103174313e-11
2.309172429e-11
2.661362756e-11
2.677975508e-11
3.033488385e-11
2.857393222e-11
3.325872808e-11
3.119874692e-11
4.488765398e-11
3.2195512e-11
2.817522618e-11
3.947189706e-11
4.415669292e-11
2.621492153e-11
2.136399816e-11
2.378945984e-11
3.86412595e-11
2.950424629e-11
3.020198184e-11
3.648160183e-11
2.674652957e-11
3.412259115e-11
2.864038322e-11
2.774329465e-11
2.810877518e-11
3.09329429e-11
3.555128776e-11
3.302614956e-11
2.913876576e-11
3.010230533e-11
2.937134428e-11
1.222698495e-11
3.987060309e-12
9.469268234e-12
7.342836069e-12
2.149690017e-11
1.385503457e-11
1.355600505e-11
1.604791774e-11
1.913788948e-11
1.840692843e-11
2.073271361e-11
2.598234301e-11
2.458687191e-11
2.525138196e-11
2.548396048e-11
3.814287696e-11
3.116552142e-11
3.877416151e-11
4.090059367e-11
4.598409557e-11
3.658127834e-11
3.837545548e-11
4.116639769e-11
2.701233359e-11
4.395733991e-11
3.664772934e-11
3.654805283e-11
3.246131602e-11
4.226283928e-11
3.810965145e-11
4.282767282e-11
3.432194416e-11
3.080004089e-11
2.687943158e-11
2.747749063e-11
3.422226765e-11
2.45536464e-11
3.133164893e-11
2.435429339e-11
2.594911751e-11
3.721256289e-11
3.050101136e-11
3.322550258e-12
2.093206662e-12
1.81078989e-11
4.950599884e-12
1.059893532e-11
1.844015393e-11
1.591501573e-11
1.03331313e-11
1.461922113e-11
1.870595795e-11
1.947014451e-11
1.647984928e-11
1.744338885e-11
1.744338885e-11
2.146367466e-11
2.19620572e-11
2.618169603e-11
3.418904215e-11
2.541750947e-11
3.335840459e-11
1.973594853e-11
2.016788006e-11
2.827490269e-11
5.505465777e-11
2.388913635e-11
3.2261963e-11
3.09329429e-11
3.850835749e-11
3.810965145e-11
2.913876576e-11
3.847513198e-11
4.335928086e-11
5.29282256e-11
5.774592348e-11
3.977092658e-11
4.292734933e-11
3.09329429e-11
2.44539699e-11
2.608201952e-11
2.435429339e-11
2.515170545e-11
1.880563446e-11
7.974120618e-13
3.654805283e-13
2.32578518e-12
3.854158299e-12
1.2957946e-11
1.010055278e-11
1.136312188e-11
2.020110557e-11
1.80082224e-11
1.794177139e-11
2.897263825e-11
1.993530155e-11
2.375623434e-11
2.339075381e-11
2.741103963e-11
2.056658609e-11
2.182915519e-11
2.930489327e-11
2.771006915e-11
2.016788006e-11
2.418816588e-11
3.8674485e-11
4.269477081e-11
4.468830096e-11
3.724578839e-11
3.279357104e-11
2.814200068e-11
3.498645421e-11
2.701233359e-11
2.624814704e-11
4.163155473e-11
5.425724571e-11
5.54533638e-11
4.950599884e-11
5.561949131e-11
3.389001263e-11
4.222961377e-11
3.465419919e-11
4.222961377e-11
2.392236185e-11
3.036810935e-11
2.757716714e-11
1.528373119e-11
4.418991843e-12
8.572179665e-12
1.455277013e-11
8.406052152e-12
8.804758183e-12
1.103086686e-11
1.242633796e-11
2.179592969e-11
1.578211372e-11
1.9304017e-11
2.525138196e-11
2.159657667e-11
2.634782354e-11
3.103261941e-11
1.817434991e-11
1.860628144e-11
4.030253462e-11
2.561686249e-11
2.817522618e-11
2.551718598e-11
2.498557794e-11
2.757716714e-11
2.329107731e-11
3.09329429e-11
4.345895737e-11
3.99702796e-11
2.611524502e-11
2.44871954e-11
2.897263825e-11
2.807554968e-11
4.302702584e-11
4.558538953e-11
4.987147937e-11
2.923844227e-11
2.488590143e-11
3.256099252e-11
3.880738701e-11
3.618257231e-11
3.156422745e-11
3.322550258e-11
2.079916461e-11
2.013465456e-11
5.814462951e-12
7.442512577e-12
5.216403904e-12
8.206699136e-12
9.236689716e-12
1.059893532e-11
1.737693785e-11
2.013465456e-11
1.538340769e-11
1.731048684e-11
1.554953521e-11
2.335752831e-11
2.910554026e-11
2.611524502e-11
2.099851763e-11
3.365743411e-11
2.897263825e-11
2.674652957e-11
2.744426513e-11
2.691265709e-11
3.61161213e-11
3.216228649e-11
2.684620608e-11
3.269389453e-11
3.674740585e-11
4.010318161e-11
3.492000321e-11
3.917286754e-11
2.425461688e-11
4.219638827e-11
3.422226765e-11
2.31914008e-11
4.209671176e-11
3.299292406e-11
3.2195512e-11
2.402203836e-11
2.618169603e-11
2.84078047e-11
3.146455094e-11
2.817522618e-11
2.465332291e-11
3.030165835e-11
5.382531417e-12
3.654805283e-12
3.953834807e-12
4.618344858e-12
5.615109935e-12
1.973594853e-11
1.123021987e-11
1.721081033e-11
1.179505341e-11
1.355600505e-11
1.900498747e-11
2.558363698e-11
3.465419919e-11
3.186325697e-11
2.774329465e-11
4.807730223e-11
2.611524502e-11
2.515170545e-11
2.458687191e-11
3.129842343e-11
2.44871954e-11
3.525225823e-11
2.661362756e-11
2.518493095e-11
3.538516024e-11
4.010318161e-11
4.349218287e-11
2.953747179e-11
3.103261941e-11
3.947189706e-11
2.462009741e-11
2.721168661e-11
2.741103963e-11
4.355863388e-11
4.086736817e-11
2.578299e-11
2.797587317e-11
2.694588259e-11
3.322550258e-11
3.013553084e-11
2.548396048e-11
1.076506283e-11
2.890618724e-12
3.887383801e-12
7.143483054e-12
9.66862125e-12
1.146279839e-11
1.242633796e-11
1.206085744e-11
1.574888822e-11
1.790854589e-11
2.810877518e-11
2.302527329e-11
2.777652015e-11
3.060068787e-11
2.920521676e-11
2.614847053e-11
2.807554968e-11
2.701233359e-11
2.159657667e-11
2.481945042e-11
2.784297116e-11
2.259334175e-11
1.996852705e-11
1.943691901e-11
2.010142906e-11
2.648072555e-11
2.950424629e-11
2.45204209e-11
2.830812819e-11
4.5087007e-11
4.335928086e-11
4.12992997e-11
4.618344858e-11
4.359185938e-11
3.927254404e-11
4.315992785e-11
3.050101136e-11
4.409024192e-11
1.920434049e-11
2.471977392e-11
2.428784238e-11
2.681298058e-11
7.708316598e-12
8.970885696e-13
3.156422745e-12
7.641865593e-12
1.02666803e-11
1.365568156e-11
1.465244664e-11
1.588179023e-11
1.863950695e-11
2.106496863e-11
2.468654841e-11
2.854070671e-11
3.299292406e-11
3.365743411e-11
2.717846111e-11
2.621492153e-11
2.638104905e-11
2.618169603e-11
2.804232417e-11
2.84078047e-11
3.422226765e-11
3.581709178e-11
4.146542721e-11
2.910554026e-11
3.784384743e-11
4.219638827e-11
5.870946305e-11
5.056921492e-11
4.990470487e-11
5.046953841e-11
3.641515082e-11
3.747836691e-11
2.940456978e-11
5.229694105e-11
3.22951885e-11
4.721343916e-11
3.555128776e-11
3.09329429e-11
3.531870924e-11
3.458774818e-11
2.658040206e-11
2.601556852e-11
2.518493095e-11
5.316080412e-12
6.412521997e-12
8.837983685e-12
1.039958231e-11
1.076506283e-11
1.305762251e-11
1.561598621e-11
1.890531097e-11
1.770919287e-11
1.747661436e-11
2.000175255e-11
3.408936564e-11
2.262656725e-11
2.172947868e-11
3.276034554e-11
2.631459804e-11
2.252689075e-11
3.176358046e-11
3.169712946e-11
2.621492153e-11
2.32578518e-11
2.285914577e-11
3.807642595e-11
3.458774818e-11
3.807642595e-11
4.186413325e-11
4.232929028e-11
3.820932796e-11
3.030165835e-11
2.950424629e-11
4.399056541e-11
2.820845169e-11
2.824167719e-11
2.505202894e-11
3.465419919e-11
3.797674944e-11
3.711288638e-11
4.176445674e-11
5.741366845e-11
4.309347684e-11
3.585031728e-11
1.302439701e-11
1.299117151e-11
1.664597679e-11
1.182827892e-11
1.265891648e-11
1.55163097e-11
2.388913635e-11
2.086561562e-11
1.860628144e-11
1.628049626e-11
1.471889764e-11
1.853983044e-11
2.571653899e-11
2.368978334e-11
2.757716714e-11
2.614847053e-11
3.618257231e-11
2.721168661e-11
3.339163009e-11
2.800909867e-11
2.305849879e-11
2.880651073e-11
2.664685307e-11
3.754481791e-11
4.073446616e-11
5.206436254e-11
2.754394164e-11
2.44539699e-11
2.438751889e-11
2.435429339e-11
2.830812819e-11
2.787619666e-11
3.528548374e-11
3.781062193e-11
3.279357104e-11
2.408848937e-11
2.814200068e-11
2.927166777e-11
2.883973624e-11
4.139897621e-11
1.837370292e-11
1.990207604e-11
1.654630028e-11
8.77153268e-12
4.651570361e-12
5.648335438e-12
6.811228028e-12
9.170238711e-12
1.754306536e-11
2.05998116e-11
2.651395106e-11
1.900498747e-11
2.050013509e-11
2.362333233e-11
2.292559678e-11
2.458687191e-11
2.588266651e-11
2.671330407e-11
2.877328523e-11
2.126432165e-11
2.119787064e-11
2.305849879e-11
2.392236185e-11
3.22951885e-11
3.040133486e-11
3.232841401e-11
5.063566593e-11
4.575151705e-11
4.631635059e-11
3.236163951e-11
3.375711062e-11
3.302614956e-11
5.156598e-11
2.5849441e-11
2.661362756e-11
4.026930912e-11
4.598409557e-11
2.827490269e-11
3.176358046e-11
3.432194416e-11
5.738044295e-11
4.25950943e-11
3.538516024e-11
2.96039228e-11
2.418816588e-11
1.299117151e-11
5.316080412e-12
5.482207925e-12
6.080266971e-12
9.701846752e-12
9.93442527e-12
1.16621514e-11
9.469268234e-12
1.458599563e-11
1.903821298e-11
2.023433107e-11
1.169537691e-11
1.505115267e-11
2.677975508e-11
3.256099252e-11
1.584856473e-11
1.750983986e-11
2.05998116e-11
2.219463572e-11
2.930489327e-11
2.471977392e-11
3.701320987e-11
4.183090774e-11
2.990295232e-11
3.408936564e-11
3.09329429e-11
4.409024192e-11
2.388913635e-11
3.123197242e-11
3.212906099e-11
3.256099252e-11
3.292647305e-11
3.840868098e-11
2.422139138e-11
2.731136312e-11
3.169712946e-11
3.834222997e-11
3.236163951e-11
3.714611188e-11
2.57497645e-11
3.006907983e-11
6.4457475e-12
3.521903273e-12
1.186150442e-11
6.744777023e-12
6.312845489e-12
1.099764135e-11
8.040571623e-12
8.705081675e-12
1.103086686e-11
2.777652015e-11
2.545073497e-11
2.126432165e-11
2.079916461e-11
2.305849879e-11
2.608201952e-11
2.222786122e-11
2.083239012e-11
2.614847053e-11
2.601556852e-11
3.169712946e-11
3.601644479e-11
3.624902331e-11
4.914051831e-11
3.947189706e-11
3.508613072e-11
2.305849879e-11
2.442074439e-11
3.070036438e-11
3.820932796e-11
3.35577576e-11
3.016875634e-11
4.163155473e-11
4.329282986e-11
3.505290522e-11
3.827577897e-11
4.475475197e-11
5.781237448e-11
4.950599884e-11
4.369153589e-11
3.644837633e-11
4.375798689e-11
4.066801515e-11
1.063216082e-11
1.362245606e-12
8.439277654e-12
2.757716714e-12
6.4457475e-12
6.512198505e-12
7.110257551e-12
1.485179965e-11
2.162980218e-11
2.116464514e-11
1.960304652e-11
2.31581753e-11
2.521815646e-11
2.658040206e-11
2.538428397e-11
2.44539699e-11
2.412171487e-11
4.498733049e-11
3.256099252e-11
3.279357104e-11
2.790942216e-11
2.671330407e-11
3.668095484e-11
3.2261963e-11
3.003585433e-11
3.787707294e-11
3.452129718e-11
3.398968914e-11
4.422314393e-11
2.996940332e-11
3.109907041e-11
3.179680597e-11
4.402379091e-11
3.511935622e-11
3.691353336e-11
3.800997495e-11
3.810965145e-11
6.349393542e-11
4.605054657e-11
4.159832923e-11
3.694675886e-11
3.295969856e-11
2.525138196e-12
3.22287375e-12
1.335665204e-11
7.940895116e-12
1.066538633e-11
9.436042732e-12
1.54166332e-11
1.830725192e-11
1.747661436e-11
2.408848937e-11
1.80414479e-11
1.953659551e-11
2.043368408e-11
2.079916461e-11
2.415494037e-11
2.767684365e-11
1.950337001e-11
2.555041148e-11
2.252689075e-11
1.943691901e-11
2.099851763e-11
2.545073497e-11
2.847425571e-11
2.073271361e-11
2.256011625e-11
2.535105847e-11
2.256011625e-11
2.309172429e-11
2.026755657e-11
3.551806225e-11
2.309172429e-11
3.000262883e-11
2.747749063e-11
2.71120101e-11
1.923756599e-11
2.591589201e-11
4.090059367e-11
5.462272624e-11
3.246131602e-11
2.900586375e-11
4.219638827e-11
3.08997174e-11
3.156422745e-12
1.528373119e-12
3.422226765e-12
6.246394484e-12
5.448982422e-12
6.844453531e-12
8.239924639e-12
9.735072255e-12
1.382180907e-11
2.352365582e-11
2.475299942e-11
3.083326639e-11
2.428784238e-11
2.246043974e-11
2.594911751e-11
2.790942216e-11
2.857393222e-11
3.398968914e-11
2.555041148e-11
3.173035496e-11
2.97035993e-11
2.624814704e-11
2.412171487e-11
2.44539699e-11
2.462009741e-11
2.372300884e-11
2.824167719e-11
2.179592969e-11
2.996940332e-11
4.229606478e-11
3.465419919e-11
3.638192532e-11
3.910641653e-11
4.734634117e-11
3.847513198e-11
3.126519792e-11
2.993617782e-11
3.425549316e-11
5.000438138e-11
4.435604594e-11
4.737956667e-11
3.747836691e-11
7.508963582e-12
1.262569098e-12
5.216403904e-12
9.602170244e-12
1.132989638e-11
1.229343595e-11
1.508437817e-11
1.508437817e-11
2.362333233e-11
1.877240896e-11
2.594911751e-11
3.555128776e-11
2.774329465e-11
2.734458862e-11
2.757716714e-11
2.594911751e-11
2.903908925e-11
3.492000321e-11
3.927254404e-11
2.521815646e-11
2.664685307e-11
3.033488385e-11
2.854070671e-11
3.654805283e-11
4.455539895e-11
3.199615898e-11
3.2195512e-11
3.990382859e-11
4.222961377e-11
4.797762572e-11
3.395646363e-11
4.578474255e-11
3.781062193e-11
3.372388511e-11
4.561861504e-11
5.296145111e-11
4.578474255e-11
4.013640711e-11
4.046866214e-11
3.335840459e-11
3.2195512e-11
2.933811877e-11
2.392236185e-11
3.987060309e-12
4.884148879e-12
6.877679033e-12
6.844453531e-12
1.179505341e-11
8.107022629e-12
9.635395747e-12
1.568243722e-11
1.714435933e-11
2.279269477e-11
2.226108673e-11
1.408761309e-11
1.67456533e-11
1.528373119e-11
1.388826008e-11
2.402203836e-11
1.993530155e-11
3.452129718e-11
2.691265709e-11
2.790942216e-11
4.306025134e-11
3.465419919e-11
4.056833865e-11
3.169712946e-11
3.774417093e-11
4.980502836e-11
3.123197242e-11
3.09661684e-11
4.312670234e-11
4.020285812e-11
4.212993727e-11
3.797674944e-11
5.193146053e-11
5.641690337e-11
5.040308741e-11
2.923844227e-11
2.800909867e-11
3.678063135e-11
2.983650131e-11
2.664685307e-11
2.312494979e-11
1.927079149e-12
7.309610567e-13
2.724491211e-12
2.890618724e-12
5.249629407e-12
8.273150141e-12
1.614759425e-11
1.076506283e-11
1.604791774e-11
1.611436875e-11
1.644662378e-11
1.638017277e-11
1.870595795e-11
2.123109615e-11
2.754394164e-11
3.724578839e-11
2.621492153e-11
2.857393222e-11
3.023520734e-11
3.023520734e-11
3.74119159e-11
2.226108673e-11
2.45204209e-11
3.810965145e-11
4.329282986e-11
3.73786904e-11
5.54865893e-11
3.638192532e-11
3.35245321e-11
3.880738701e-11
4.472152647e-11
6.123460125e-11
5.728076644e-11
4.299380033e-11
3.8674485e-11
4.25618688e-11
3.684708236e-11
3.47871012e-11
3.312582607e-11
3.319227707e-11
3.305937506e-11
4.036898563e-11
2.790942216e-12
3.22287375e-12
4.119962319e-12
5.980590464e-12
7.60864009e-12
1.003410178e-11
2.05998116e-11
1.794177139e-11
2.5849441e-11
1.54166332e-11
1.42205151e-11
1.734371234e-11
1.647984928e-11
2.694588259e-11
3.432194416e-11
2.980327581e-11
2.810877518e-11
2.139722366e-11
2.844103021e-11
2.023433107e-11
3.183003147e-11
2.664685307e-11
2.252689075e-11
2.209495921e-11
3.767771992e-11
2.764361814e-11
2.216141022e-11
2.335752831e-11
2.435429339e-11
2.485267593e-11
3.505290522e-11
3.415581665e-11
3.933899505e-11
4.458862446e-11
4.668183112e-11
4.801085122e-11
3.013553084e-11
4.272799631e-11
3.844190648e-11
3.329195358e-11
3.09661684e-11
3.083326639e-11
5.54865893e-12
4.618344858e-12
5.748011946e-12
8.206699136e-12
9.635395747e-12
1.741016335e-11
1.352277955e-11
1.235988696e-11
1.265891648e-11
1.2891495e-11
1.608114325e-11
1.794177139e-11
2.45536464e-11
2.252689075e-11
2.996940332e-11
1.860628144e-11
2.269301826e-11
2.073271361e-11
2.06662626e-11
1.661275129e-11
1.960304652e-11
1.920434049e-11
1.820757541e-11
2.256011625e-11
2.309172429e-11
3.156422745e-11
2.771006915e-11
2.372300884e-11
2.086561562e-11
2.139722366e-11
2.44539699e-11
2.887296174e-11
2.119787064e-11
1.970272303e-11
3.199615898e-11
3.206260999e-11
4.063478965e-11
3.242809051e-11
2.259334175e-11
3.136487443e-11
2.531783296e-11
2.335752831e-11
3.322550258e-13
2.19288317e-12
3.389001263e-12
4.020285812e-12
8.804758183e-12
6.57864951e-12
1.189472992e-11
1.448631912e-11
1.206085744e-11
1.750983986e-11
2.309172429e-11
1.55163097e-11
2.362333233e-11
1.907143848e-11
1.67124278e-11
1.621404526e-11
1.664597679e-11
1.767596737e-11
2.109819414e-11
2.020110557e-11
2.372300884e-11
2.026755657e-11
3.342485559e-11
2.874005973e-11
3.777739643e-11
4.854245926e-11
2.724491211e-11
2.790942216e-11
2.814200068e-11
3.016875634e-11
3.016875634e-11
3.47871012e-11
3.412259115e-11
3.332517908e-11
3.422226765e-11
3.020198184e-11
3.315905157e-11
5.475562825e-11
2.561686249e-11
2.953747179e-11
3.179680597e-11
3.153100194e-11
2.953747179e-11
3.834222997e-11
1.654630028e-11
2.917199126e-11
3.917286754e-11
1.797499689e-11
1.272536749e-11
2.143044916e-11
4.375798689e-11
5.811140401e-11
3.126519792e-11
4.073446616e-11
6.339425892e-11
2.787619666e-11
3.714611188e-11
3.668095484e-11
4.399056541e-11
3.531870924e-11
3.923931854e-11
4.708053715e-11
4.977180286e-11
3.661450384e-11
4.624989959e-11
5.92742966e-11
5.515433428e-11
7.296320366e-11
9.306463272e-11
6.372651394e-11
5.093469545e-11
5.096792095e-11
5.581884433e-11
5.345983364e-11
5.458950073e-11
5.206436254e-11
5.455627523e-11
5.28617746e-11
5.060244042e-11
6.073621871e-11
5.694851142e-11
6.013815966e-11
5.777914898e-11
5.661625639e-11
2.013465456e-11
2.508525444e-11
4.970535185e-11
3.176358046e-11
4.548571303e-11
6.70158387e-11
5.488853026e-11
7.86779901e-11
6.472327902e-11
1.110064041e-10
3.691353336e-11
4.781149821e-11
7.183353657e-11
4.036898563e-11
3.60828958e-11
5.628400136e-11
6.492263203e-11
4.651570361e-11
5.787882549e-11
7.754832301e-11
6.342748442e-11
6.944130038e-11
5.455627523e-11
6.379296495e-11
6.166653278e-11
9.343011324e-11
6.807905478e-11