/*--------------------------------*- C++ -*----------------------------------*\
| =========                 |                                                 |
| \\      /  F ield         | OpenFOAM: The Open Source CFD Toolbox           |
|  \\    /   O peration     | Version:  v1706                                 |
|   \\  /    A nd           | Web:      www.OpenFOAM.com                      |
|    \\/     M anipulation  |                                                 |
\*---------------------------------------------------------------------------*/
FoamFile
{
    version     2.0;
    format      ascii;
    class       volScalarField;
    location    "3.989";
    object      rhoM_N2;
}
// * * * * * * * * * * * * * * * * * * * * * * * * * * * * * * * * * * * * * //

dimensions      [1 -3 0 0 0 0 0];


internalField   nonuniform List<scalar> 
50792
(
1.236105035e-11
1.308817096e-11
2.704888665e-11
2.888123059e-11
3.589067326e-11
5.363241611e-11
6.613889059e-11
5.273078656e-11
6.430654665e-11
6.244511789e-11
7.067612319e-11
6.41320377e-11
8.408422721e-11
7.416630211e-11
8.606199527e-11
1.001099654e-10
8.265907082e-11
8.437507546e-11
9.443842468e-11
8.981393761e-11
1.142742749e-10
1.152922437e-10
9.999362614e-11
1.106386719e-10
1.263153922e-10
9.976094754e-11
9.885931799e-11
1.360297235e-10
1.152922437e-10
1.179680476e-10
1.355061967e-10
1.234069097e-10
1.218654141e-10
1.271879369e-10
1.134889846e-10
1.186660834e-10
1.299509952e-10
1.117438952e-10
1.206438514e-10
1.282931602e-10
1.367277593e-10
1.364078262e-10
9.539822389e-12
8.521853536e-12
1.308817096e-11
1.963225644e-11
3.455277133e-11
3.638511527e-11
3.242957916e-11
3.653053939e-11
4.272560698e-11
4.62157859e-11
5.040400061e-11
5.275987138e-11
5.872226037e-11
7.591139157e-11
8.850512052e-11
7.945974014e-11
7.596956122e-11
7.788915963e-11
8.385154862e-11
7.983784286e-11
7.80927534e-11
7.672576665e-11
8.862145981e-11
1.013606129e-10
1.159611947e-10
1.053743186e-10
9.932467518e-11
1.094171092e-10
1.12441931e-10
1.068576447e-10
1.115693862e-10
9.627076862e-11
1.004008137e-10
9.388581302e-11
8.961034384e-11
1.13430815e-10
9.94700993e-11
1.195967978e-10
1.099697209e-10
1.136634936e-10
8.748715166e-11
9.344954066e-11
1.03832823e-11
1.023785817e-11
1.809076075e-11
2.664169911e-11
3.234232468e-11
4.281286145e-11
4.825172361e-11
4.892067457e-11
5.700625574e-11
6.343400192e-11
7.518427096e-11
6.148531869e-11
8.280449494e-11
7.358460562e-11
7.65512577e-11
7.143232862e-11
8.2629986e-11
9.155902707e-11
1.043854346e-10
1.041236712e-10
9.595083555e-11
8.57420622e-11
1.081082921e-10
1.05316149e-10
9.452567916e-11
1.073811715e-10
9.833579115e-11
7.704569972e-11
1.057524214e-10
1.143033597e-10
1.034547202e-10
9.458384881e-11
1.012442736e-10
1.180843869e-10
1.138961722e-10
1.120056586e-10
1.186079137e-10
1.234941642e-10
1.263735618e-10
1.148268866e-10
9.909199658e-11
1.053452338e-10
8.783616956e-12
1.532770244e-11
1.724730084e-11
2.414040422e-11
3.216781574e-11
2.838678857e-11
3.801386543e-11
3.917725841e-11
4.292920075e-11
6.093270703e-11
7.588230674e-11
7.160683756e-11
9.336228618e-11
6.872743995e-11
7.983784286e-11
1.016805459e-10
8.539304431e-11
9.356587995e-11
7.771465068e-11
1.138089177e-10
1.154667527e-10
1.100278905e-10
9.539822389e-11
1.237268428e-10
1.394908176e-10
1.138380025e-10
9.926650553e-11
9.193712979e-11
1.163683822e-10
1.272170217e-10
9.440933986e-11
1.016805459e-10
9.132634848e-11
9.856846974e-11
1.099697209e-10
1.012442736e-10
1.06973984e-10
1.211382934e-10
1.381820005e-10
1.151468196e-10
1.158448554e-10
1.202948335e-10
9.01629555e-12
2.065022529e-11
1.093589396e-11
2.123192178e-11
2.632176604e-11
3.318578459e-11
4.918243799e-11
4.342364276e-11
4.676839756e-11
5.947846581e-11
5.543567522e-11
5.348699199e-11
6.616797541e-11
6.483007349e-11
8.550938361e-11
8.690545518e-11
8.955217419e-11
9.714331335e-11
1.089808369e-10
1.091553458e-10
1.094461941e-10
1.459767334e-10
1.319869329e-10
1.126455247e-10
1.393163087e-10
1.156994313e-10
1.069448992e-10
1.022040728e-10
1.01506037e-10
1.131108819e-10
1.154667527e-10
8.135025372e-11
9.644527756e-11
9.048288857e-11
9.403123714e-11
1.152922437e-10
1.073811715e-10
1.177935386e-10
1.26838919e-10
1.058396758e-10
1.069158143e-10
9.699788923e-11
2.885214576e-11
9.219889321e-12
2.440216763e-11
2.14936852e-11
2.457667658e-11
2.972469049e-11
3.149886478e-11
3.597792773e-11
4.607036178e-11
4.586676801e-11
5.174190253e-11
7.471891377e-11
6.558627892e-11
7.460257447e-11
6.907645785e-11
7.442806553e-11
8.056496347e-11
8.59747408e-11
1.0845731e-10
1.098824664e-10
1.164847215e-10
1.242503696e-10
1.476927381e-10
1.344009733e-10
1.046762829e-10
1.10115145e-10
1.129654578e-10
1.245121331e-10
1.270715976e-10
9.310052276e-11
1.232905704e-10
8.885413841e-11
1.036873988e-10
9.912108141e-11
9.801585808e-11
1.138961722e-10
9.705605888e-11
1.067413054e-10
9.856846974e-11
1.060432696e-10
9.944101447e-11
9.38567282e-11
1.384437639e-11
9.365313443e-12
1.765448838e-11
2.099924319e-11
2.507111859e-11
3.019004768e-11
5.165464806e-11
5.63663896e-11
4.889158974e-11
4.932786211e-11
5.668632267e-11
6.206701518e-11
7.122873485e-11
6.645882365e-11
6.206701518e-11
6.558627892e-11
8.737081237e-11
7.972150356e-11
8.559663808e-11
1.059560151e-10
1.020877335e-10
1.378038978e-10
1.332084956e-10
1.130236274e-10
1.336738527e-10
1.322486963e-10
1.006334923e-10
1.109295201e-10
9.304235311e-11
1.07468426e-10
1.304163524e-10
1.286421781e-10
1.099697209e-10
1.090680913e-10
1.191896102e-10
1.010697646e-10
9.903382693e-11
1.237850125e-10
1.181134717e-10
1.324813749e-10
1.173281815e-10
9.219889321e-11
1.797442145e-11
9.685246511e-12
1.23028807e-11
1.710187672e-11
2.303518089e-11
2.704888665e-11
4.205665602e-11
4.132953541e-11
4.572134389e-11
5.604645653e-11
5.444679119e-11
5.645364407e-11
6.282322061e-11
7.387545386e-11
7.396270834e-11
9.275150487e-11
1.126746096e-10
1.019713942e-10
9.033746445e-11
9.73178223e-11
7.838360164e-11
9.534005424e-11
1.033383809e-10
9.321686206e-11
1.126746096e-10
1.093298548e-10
1.214582265e-10
1.096788726e-10
1.172990966e-10
1.184915744e-10
1.268098342e-10
1.137798329e-10
1.137798329e-10
1.06973984e-10
1.147396321e-10
1.06305033e-10
1.31812424e-10
1.422829607e-10
1.259954591e-10
1.117148104e-10
1.082828011e-10
1.048507918e-10
2.222080581e-11
1.430973358e-11
2.405314974e-11
2.984102979e-11
4.115502646e-11
4.566317424e-11
4.368540618e-11
5.243993831e-11
6.014741677e-11
5.814056389e-11
6.229969377e-11
6.904737302e-11
6.456831007e-11
7.876170436e-11
7.436989588e-11
8.821427227e-11
8.89704777e-11
7.841268646e-11
8.835969639e-11
9.563090248e-11
8.649826763e-11
1.041236712e-10
7.78600748e-11
7.754014173e-11
1.052288945e-10
1.23523249e-10
9.766684019e-11
1.061596089e-10
9.499103635e-11
1.070903233e-10
8.809793297e-11
1.04152756e-10
1.168628243e-10
1.033965506e-10
1.20382088e-10
9.097733059e-11
1.385891881e-10
1.395199024e-10
1.198585612e-10
1.402761079e-10
1.105805022e-10
9.679429546e-11
2.80668555e-11
8.405514239e-12
1.652018023e-11
1.881788136e-11
4.316187934e-11
4.231841944e-11
3.888641016e-11
5.226542937e-11
6.30558992e-11
6.503366726e-11
6.599346646e-11
8.222279845e-11
7.163592239e-11
7.602773087e-11
7.500976201e-11
8.981393761e-11
7.783098998e-11
9.429300056e-11
1.163974671e-10
1.115984711e-10
1.28002312e-10
9.699788923e-11
1.190732709e-10
9.531096941e-11
1.073520867e-10
9.682338028e-11
1.126164399e-10
1.164847215e-10
1.174736056e-10
1.186660834e-10
1.136925784e-10
1.193059495e-10
9.821945185e-11
1.097952119e-10
1.028730237e-10
1.167174001e-10
1.346627368e-10
1.33964701e-10
1.127909489e-10
1.337029376e-10
1.212837176e-10
1.054034035e-10
2.719431077e-11
1.061596089e-11
1.750906426e-11
2.847404304e-11
4.74082637e-11
5.354516164e-11
4.243475874e-11
5.601737171e-11
6.587712717e-11
6.802940417e-11
7.227578852e-11
6.66333326e-11
6.515000656e-11
6.363759569e-11
7.466074412e-11
8.367703967e-11
8.12048296e-11
8.539304431e-11
8.341527625e-11
9.743416159e-11
9.496195152e-11
1.205856818e-10
1.10609587e-10
1.018550549e-10
1.002263047e-10
1.00342644e-10
1.025530907e-10
1.148850562e-10
1.045890284e-10
1.115112166e-10
1.149723107e-10
1.003717289e-10
1.232324008e-10
1.140125115e-10
1.175899449e-10
1.091844306e-10
1.344882278e-10
1.290784505e-10
1.324813749e-10
1.217199899e-10
1.256173564e-10
1.106677567e-10
2.094107354e-11
1.204111728e-11
1.846886347e-11
2.571098473e-11
3.187696749e-11
5.162556323e-11
3.708315105e-11
5.726801916e-11
7.055978389e-11
6.311406885e-11
6.811665864e-11
8.940675007e-11
8.076855724e-11
7.111239555e-11
7.34391815e-11
7.975058838e-11
8.771983026e-11
8.873779911e-11
1.143033597e-10
1.112494532e-10
9.900474211e-11
1.0845731e-10
1.018259701e-10
9.193712979e-11
8.975576796e-11
9.286784417e-11
1.049089615e-10
9.144268778e-11
1.193641192e-10
9.580541143e-11
1.179971324e-10
1.051998097e-10
1.092135155e-10
8.286266459e-11
8.044862417e-11
8.751623649e-11
8.734172754e-11
1.019423094e-10
1.036873988e-10
1.033092961e-10
9.845213044e-11
8.2629986e-11
2.236622993e-11
9.336228618e-12
1.460058183e-11
2.123192178e-11
3.16442889e-11
4.505239293e-11
4.150404436e-11
4.947328623e-11
6.084545255e-11
6.07872829e-11
5.453404567e-11
9.004661621e-11
8.161201714e-11
7.937248567e-11
6.369576534e-11
6.823299794e-11
8.37061245e-11
8.091398136e-11
9.26642504e-11
1.10289654e-10
9.161719672e-11
8.172835644e-11
1.06799475e-10
9.949918412e-11
1.059560151e-10
9.603809002e-11
9.647436239e-11
1.19218695e-10
1.394908176e-10
1.24861151e-10
1.016514611e-10
1.033092961e-10
1.138670874e-10
1.139543418e-10
1.104932477e-10
1.152049893e-10
1.144778687e-10
9.551456319e-11
9.885931799e-11
9.813219738e-11
1.02494921e-10
7.954699461e-11
2.076656459e-11
1.477509077e-11
2.015578328e-11
2.443125246e-11
3.615243667e-11
4.127136576e-11
3.397107485e-11
5.686083162e-11
4.772819677e-11
6.125264009e-11
5.531933593e-11
6.823299794e-11
5.354516164e-11
8.14375082e-11
7.849994094e-11
6.893103372e-11
7.553328885e-11
8.422965133e-11
7.623132464e-11
7.431172623e-11
8.373520932e-11
9.717239817e-11
9.522371494e-11
1.274787852e-10
1.299219104e-10
1.163683822e-10
1.253265081e-10
1.365241655e-10
1.250356599e-10
9.536913906e-11
1.013024432e-10
1.129654578e-10
1.037455685e-10
1.028148541e-10
9.7201483e-11
1.324813749e-10
1.174445207e-10
9.379855855e-11
1.031347872e-10
1.014769522e-10
1.105805022e-10
9.458384881e-11
3.350571766e-11
8.027411522e-12
1.698553742e-11
2.498386412e-11
2.812502515e-11
3.481453475e-11
4.726283958e-11
4.519781705e-11
5.790788529e-11
6.718594426e-11
6.160165799e-11
6.506275208e-11
5.991473817e-11
6.701143532e-11
8.164110197e-11
8.041953934e-11
7.061795354e-11
8.859237499e-11
9.929559035e-11
9.586358108e-11
8.085581171e-11
9.048288857e-11
9.845213044e-11
1.080792073e-10
1.040945864e-10
1.087190734e-10
8.559663808e-11
1.003717289e-10
1.136344088e-10
1.407705499e-10
1.300382497e-10
1.146232928e-10
9.746324642e-11
9.70851437e-11
1.168046546e-10
1.108131808e-10
1.174445207e-10
1.216327355e-10
1.135471543e-10
8.513128089e-11
1.022040728e-10
8.332802178e-11
2.637993569e-11
7.21303644e-12
1.175026904e-11
1.881788136e-11
3.382565073e-11
3.434917756e-11
3.609426703e-11
5.130563016e-11
5.354516164e-11
6.296864473e-11
6.404478323e-11
5.782063082e-11
6.468464937e-11
7.687119077e-11
7.055978389e-11
8.059404829e-11
1.121510827e-10
9.653253204e-11
9.38567282e-11
1.092716851e-10
1.050543856e-10
1.06973984e-10
8.693454e-11
9.417666126e-11
1.022040728e-10
1.055197428e-10
1.323359508e-10
1.301836738e-10
1.076720198e-10
1.204111728e-10
1.082246314e-10
9.650344721e-11
1.065086268e-10
8.702179447e-11
1.254137626e-10
9.013387068e-11
1.100569754e-10
9.464201845e-11
8.838878122e-11
9.833579115e-11
9.885931799e-11
1.008080012e-10
1.797442145e-11
9.859755457e-12
1.413522464e-11
1.849794829e-11
2.861946717e-11
2.882306094e-11
3.760667789e-11
5.316705892e-11
4.918243799e-11
5.846049696e-11
4.365632136e-11
5.691900126e-11
7.963424909e-11
6.189250623e-11
6.773855593e-11
7.055978389e-11
6.334674745e-11
8.300808871e-11
1.14594208e-10
9.310052276e-11
8.219371363e-11
8.248456187e-11
8.946491972e-11
9.932467518e-11
1.001390503e-10
8.757440614e-11
1.172700118e-10
1.004589833e-10
1.140125115e-10
1.10115145e-10
1.077011046e-10
1.061596089e-10
1.181716414e-10
1.293692987e-10
1.523172252e-10
1.370476924e-10
1.458313093e-10
1.2998008e-10
1.23697758e-10
1.35448027e-10
1.104932477e-10
9.007570103e-11
3.527989194e-11
1.128491185e-11
1.291366201e-11
1.492051489e-11
2.291884159e-11
2.390772562e-11
3.827562885e-11
4.034065138e-11
5.642455925e-11
6.10199615e-11
5.709351021e-11
5.883859967e-11
6.052551948e-11
6.494641279e-11
7.567871297e-11
8.364795485e-11
8.004143663e-11
8.530578984e-11
1.17066418e-10
1.209346997e-10
9.73178223e-11
9.58926659e-11
8.902864735e-11
1.139834267e-10
8.614924974e-11
1.058396758e-10
8.594565597e-11
7.788915963e-11
7.716203902e-11
8.390971827e-11
9.993545649e-11
9.981911719e-11
9.958643859e-11
1.055779124e-10
1.179680476e-10
1.327140535e-10
1.386764425e-10
1.161647885e-10
1.27013428e-10
1.090390065e-10
1.080501225e-10
8.899956253e-11
2.315152019e-11
6.893103372e-12
1.745089461e-11
1.905055995e-11
2.704888665e-11
3.696681176e-11
4.769911194e-11
4.348181241e-11
5.497031803e-11
6.148531869e-11
7.346826632e-11
6.4248377e-11
6.608072094e-11
7.707478454e-11
9.755050089e-11
8.853420534e-11
8.417148169e-11
8.638192834e-11
9.356587995e-11
1.031929568e-10
9.478744258e-11
9.801585808e-11
9.502012117e-11
1.264608163e-10
1.047053677e-10
1.108422656e-10
1.365241655e-10
1.225634498e-10
1.201494094e-10
1.268970887e-10
1.157285161e-10
1.304745221e-10
1.081664618e-10
1.097079575e-10
1.186369985e-10
1.201784942e-10
1.338192769e-10
1.17066418e-10
1.037455685e-10
1.008661709e-10
1.061305241e-10
9.179170567e-11
4.068966927e-11
8.841786604e-12
1.477509077e-11
2.303518089e-11
3.577433396e-11
3.36802266e-11
4.301645522e-11
4.359815171e-11
4.749551817e-11
6.898920337e-11
8.271724047e-11
6.683692637e-11
7.521335578e-11
8.294991906e-11
8.018686075e-11
9.624168379e-11
9.644527756e-11
1.054324883e-10
7.404996281e-11
1.036873988e-10
1.060432696e-10
1.091553458e-10
1.095916182e-10
1.353316877e-10
1.238431821e-10
1.27013428e-10
1.362914869e-10
1.198585612e-10
1.017096308e-10
1.066831357e-10
9.935376e-11
9.365313443e-11
9.798677326e-11
1.1840432e-10
9.874297869e-11
8.606199527e-11
1.034838051e-10
1.015351218e-10
1.103769084e-10
1.020877335e-10
9.848121527e-11
9.420574609e-11
5.595920206e-11
1.029602782e-11
2.021395293e-11
2.893940023e-11
3.539623124e-11
3.975895489e-11
4.854257185e-11
5.825690319e-11
6.933822126e-11
7.346826632e-11
7.119965002e-11
9.502012117e-11
7.954699461e-11
1.35448027e-10
9.295509864e-11
9.49328667e-11
1.398980052e-10
1.180553021e-10
1.085736493e-10
1.152631589e-10
1.441734743e-10
1.171536725e-10
1.036292292e-10
1.133144757e-10
1.106677567e-10
1.108131808e-10
1.261990529e-10
1.188115075e-10
1.191023557e-10
9.7201483e-11
1.012733584e-10
1.004298985e-10
1.08631819e-10
9.926650553e-11
9.539822389e-11
1.051998097e-10
9.653253204e-11
1.078465287e-10
9.152994225e-11
7.800549892e-11
8.582931667e-11
8.201920468e-11
3.810111991e-11
7.8819874e-12
1.462966665e-11
2.350053808e-11
2.934658778e-11
2.946292707e-11
4.054424515e-11
4.540141082e-11
4.589585283e-11
5.299254998e-11
6.229969377e-11
7.698753007e-11
8.821427227e-11
9.371130407e-11
1.242212848e-10
1.06479542e-10
1.04152756e-10
1.163683822e-10
1.004589833e-10
1.055779124e-10
1.207020211e-10
1.179971324e-10
1.362333173e-10
1.222144319e-10
1.102023995e-10
1.118020648e-10
1.199167308e-10
1.038619078e-10
9.26642504e-11
1.116275559e-10
1.161938733e-10
1.02494921e-10
1.032802113e-10
1.140997659e-10
9.05119734e-11
1.132272212e-10
1.001972199e-10
1.138380025e-10
8.199011986e-11
9.897565728e-11
8.882505358e-11
7.562054333e-11
1.33790192e-11
9.01629555e-12
1.736364014e-11
1.733455532e-11
2.457667658e-11
3.082991382e-11
3.225507021e-11
4.034065138e-11
4.377266066e-11
5.627913513e-11
5.220725972e-11
5.299254998e-11
5.825690319e-11
8.123391443e-11
6.483007349e-11
9.307143794e-11
9.333320136e-11
1.007498316e-10
9.73178223e-11
8.769074543e-11
9.595083555e-11
9.766684019e-11
1.140125115e-10
9.900474211e-11
1.411486526e-10
1.029311934e-10
1.145360383e-10
1.127909489e-10
1.058396758e-10
1.213128024e-10
1.255882716e-10
1.478381622e-10
1.341101251e-10
1.136344088e-10
1.27013428e-10
1.168919091e-10
1.357970449e-10
1.385019336e-10
1.168046546e-10
1.131981364e-10
9.836487597e-11
9.129726365e-11
2.850312787e-11
2.027212258e-11
1.37280371e-11
1.983585021e-11
3.411649897e-11
3.181879785e-11
3.920634323e-11
4.249292838e-11
4.781545124e-11
6.433563148e-11
7.739471761e-11
6.797123452e-11
8.201920468e-11
7.788915963e-11
7.838360164e-11
8.286266459e-11
9.920833588e-11
1.029311934e-10
1.058978455e-10
7.969241874e-11
8.364795485e-11
9.292601382e-11
1.033383809e-10
9.568907213e-11
1.276823789e-10
1.04327265e-10
1.09620703e-10
9.01629555e-11
9.086099129e-11
8.353161555e-11
9.618351415e-11
1.079337832e-10
1.155540072e-10
1.033674658e-10
1.035419747e-10
1.04327265e-10
1.121801675e-10
1.331794107e-10
1.118602345e-10
1.172700118e-10
1.030766175e-10
9.225706286e-11
3.388382037e-11
6.485915831e-12
1.169209939e-11
2.027212258e-11
2.274433265e-11
2.800868585e-11
3.9409937e-11
3.987529419e-11
4.938603176e-11
6.701143532e-11
7.370094492e-11
7.937248567e-11
8.422965133e-11
7.687119077e-11
9.58926659e-11
1.080501225e-10
9.118092436e-11
1.04821707e-10
8.963942867e-11
1.147978017e-10
8.45495844e-11
8.975576796e-11
9.382764337e-11
1.03832823e-10
1.067122206e-10
1.16746485e-10
1.014769522e-10
1.014478674e-10
9.789951878e-11
1.023494969e-10
9.903382693e-11
1.196549674e-10
1.242212848e-10
1.184334048e-10
1.104932477e-10
1.088935824e-10
1.006625771e-10
1.12441931e-10
9.193712979e-11
8.783616956e-11
9.926650553e-11
8.783616956e-11
2.565281508e-11
6.195067588e-12
1.640384094e-11
1.983585021e-11
2.824136445e-11
3.961353077e-11
4.493605363e-11
4.76409423e-11
4.592493766e-11
5.988565335e-11
5.357424646e-11
6.040918019e-11
8.015777593e-11
8.984302244e-11
9.891748763e-11
1.013606129e-10
8.388063344e-11
9.344954066e-11
7.989601251e-11
9.164628155e-11
7.695844525e-11
7.538786473e-11
1.011279343e-10
1.032220416e-10
1.022040728e-10
1.070612385e-10
1.286421781e-10
1.328594777e-10
1.271297673e-10
1.250065751e-10
1.211964631e-10
1.037164837e-10
1.305036069e-10
1.194222888e-10
1.230578919e-10
1.113657925e-10
9.057014304e-11
1.031057023e-10
1.166301457e-10
1.093007699e-10
9.536913906e-11
1.245121331e-10
8.34734459e-12
7.998326698e-12
2.71070563e-11
3.417466862e-11
2.600183297e-11
3.545440089e-11
3.749033859e-11
4.368540618e-11
4.793179054e-11
5.133471499e-11
5.703534056e-11
7.186860098e-11
6.977449363e-11
8.82433571e-11
8.710904895e-11
8.882505358e-11
1.17240927e-10
1.168919091e-10
1.062177785e-10
1.218072444e-10
1.151759044e-10
9.094824576e-11
9.848121527e-11
1.029602782e-10
1.230578919e-10
1.008080012e-10
1.207601907e-10
1.223016864e-10
1.398107507e-10
1.070030688e-10
1.254719323e-10
1.218944989e-10
1.121510827e-10
1.200330701e-10
1.108422656e-10
1.059851e-10
1.076138501e-10
9.417666126e-11
1.015351218e-10
1.006044074e-10
8.835969639e-11
1.058978455e-10
2.347145326e-11
1.509502384e-11
1.652018023e-11
3.562890984e-11
3.650145457e-11
4.958962553e-11
4.220208014e-11
4.164946848e-11
4.819355396e-11
5.107295157e-11
6.375393499e-11
7.058886871e-11
5.697717091e-11
8.516036571e-11
8.696362482e-11
9.02792948e-11
1.005462378e-10
1.006334923e-10
9.685246511e-11
1.023204121e-10
1.206147666e-10
9.717239817e-11
9.251882628e-11
9.251882628e-11
1.033674658e-10
9.568907213e-11
1.126455247e-10
1.216036506e-10
1.291366201e-10
1.241340304e-10
1.240176911e-10
1.285549237e-10
1.280604816e-10
1.258209502e-10
1.427192331e-10
1.15408583e-10
1.341392099e-10
1.160484492e-10
1.259663743e-10
1.103187388e-10
1.04152756e-10
9.801585808e-11
2.390772562e-11
1.398980052e-11
3.658870904e-11
3.557074019e-11
2.588549368e-11
2.963743602e-11
4.397625443e-11
4.598310731e-11
5.549384487e-11
5.816964871e-11
6.471373419e-11
7.544603438e-11
7.527152543e-11
7.948882496e-11
8.725447307e-11
7.33228422e-11
8.82433571e-11
1.189860164e-10
8.882505358e-11
1.087481583e-10
1.086609038e-10
9.38567282e-11
9.929559035e-11
1.111331139e-10
1.186951682e-10
1.059269303e-10
1.202366639e-10
1.013606129e-10
1.302418435e-10
1.370476924e-10
1.103187388e-10
1.035710595e-10
1.23028807e-10
1.024367514e-10
1.071775778e-10
1.317251695e-10
1.140997659e-10
1.149723107e-10
1.1756086e-10
1.095625333e-10
1.152631589e-10
1.150013955e-10
1.477509077e-11
1.035419747e-11
1.948683232e-11
3.024821733e-11
2.864855199e-11
3.376748108e-11
3.647236974e-11
5.310888927e-11
6.020558642e-11
5.275987138e-11
6.613889059e-11
7.207219475e-11
8.632375869e-11
9.004661621e-11
9.824853667e-11
8.556755326e-11
9.391489785e-11
1.00517153e-10
1.225925347e-10
9.725965265e-11
1.116566407e-10
1.050543856e-10
1.074102563e-10
1.553129621e-10
1.164556367e-10
1.077301894e-10
1.098824664e-10
1.090390065e-10
9.173353602e-11
8.70508793e-11
9.592175073e-11
8.769074543e-11
7.471891377e-11
9.565998731e-11
8.89704777e-11
1.061014393e-10
1.109004353e-10
1.214291417e-10
1.121801675e-10
1.038909926e-10
9.059922787e-11
9.144268778e-11
1.140125115e-11
1.067413054e-11
1.646201059e-11
1.81489304e-11
2.483844e-11
3.49890437e-11
4.935694693e-11
3.757759307e-11
5.607554136e-11
6.116538562e-11
5.124746052e-11
5.837324248e-11
6.195067588e-11
8.655643728e-11
8.027411522e-11
7.681302112e-11
9.216980838e-11
7.230487335e-11
9.7201483e-11
8.891230806e-11
1.214291417e-10
9.446750951e-11
1.055779124e-10
8.658552211e-11
9.821945185e-11
8.027411522e-11
9.228614768e-11
9.231523251e-11
1.076720198e-10
9.251882628e-11
1.00022711e-10
1.103187388e-10
1.048798766e-10
9.289692899e-11
9.164628155e-11
1.099115512e-10
9.938284482e-11
1.042981801e-10
1.196549674e-10
1.027566844e-10
1.193350343e-10
1.002263047e-10
1.823618487e-11
1.439698806e-11
1.381529157e-11
1.873062689e-11
2.542013649e-11
3.760667789e-11
4.668114309e-11
5.226542937e-11
5.180007218e-11
4.828080843e-11
6.055460431e-11
5.936212651e-11
6.642973883e-11
6.282322061e-11
7.79764141e-11
8.588748632e-11
9.606717485e-11
9.583449625e-11
9.502012117e-11
1.152049893e-10
1.386473577e-10
1.218944989e-10
1.130236274e-10
1.138089177e-10
1.273624459e-10
1.080501225e-10
9.891748763e-11
9.920833588e-11
1.241631152e-10
1.114821318e-10
1.211092086e-10
1.322486963e-10
1.108131808e-10
1.104350781e-10
1.003135592e-10
1.129072881e-10
1.179389628e-10
1.133144757e-10
9.522371494e-11
1.093589396e-10
9.688154993e-11
9.310052276e-11
1.701462225e-11
1.681102848e-11
1.657834988e-11
2.13773459e-11
3.120801653e-11
2.963743602e-11
3.711223588e-11
4.540141082e-11
7.201402511e-11
7.157775274e-11
6.599346646e-11
7.873261953e-11
8.167018679e-11
8.329893696e-11
1.128782033e-10
9.187896014e-11
1.066249661e-10
1.160484492e-10
9.411849162e-11
1.135180695e-10
1.258791198e-10
1.295147229e-10
1.26838919e-10
1.457440548e-10
1.226797891e-10
1.301836738e-10
1.002844744e-10
9.368221925e-11
9.82776215e-11
1.058978455e-10
1.200621549e-10
1.180843869e-10
1.118311496e-10
1.295728925e-10
9.952826895e-11
9.917925105e-11
8.725447307e-11
1.022913273e-10
1.086609038e-10
1.195967978e-10
1.052288945e-10
8.899956253e-11
5.962388993e-12
9.510737564e-12
1.340810403e-11
2.309335054e-11
2.536196684e-11
3.324395424e-11
5.307980445e-11
5.310888927e-11
6.474281902e-11
5.723893433e-11
7.553328885e-11
6.991991775e-11
6.736045321e-11
8.10884903e-11
9.792860361e-11
9.394398267e-11
1.008661709e-10
1.024076666e-10
8.492768712e-11
1.007498316e-10
1.107259263e-10
1.055488276e-10
1.143033597e-10
1.051707249e-10
9.807402773e-11
1.120638282e-10
1.221853471e-10
1.068576447e-10
1.105223326e-10
9.507829082e-11
9.542730871e-11
1.015642067e-10
1.094752789e-10
9.961552342e-11
1.163102126e-10
1.02494921e-10
9.394398267e-11
1.007789164e-10
9.917925105e-11
1.065377116e-10
1.019423094e-10
9.635802309e-11
1.308817096e-11
8.231005293e-12
1.538587208e-11
2.908482436e-11
4.810629948e-11
4.080600857e-11
4.688473686e-11
5.575560829e-11
4.84844022e-11
6.459739489e-11
7.067612319e-11
5.229451419e-11
6.049643466e-11
6.500458244e-11
7.483525307e-11
7.207219475e-11
7.323558773e-11
9.251882628e-11
7.844177129e-11
7.89362133e-11
8.367703967e-11
1.098824664e-10
8.923224112e-11
1.237268428e-10
1.125582703e-10
9.929559035e-11
1.06479542e-10
1.07468426e-10
9.705605888e-11
1.018259701e-10
8.9086817e-11
1.002844744e-10
1.077592742e-10
1.16746485e-10
1.085445645e-10
1.156994313e-10
1.108131808e-10
1.106677567e-10
1.272170217e-10
9.734690712e-11
8.513128089e-11
1.047635373e-10
2.393681044e-11
9.161719672e-12
1.590939892e-11
2.134826108e-11
2.893940023e-11
3.373839625e-11
4.639029485e-11
5.840232731e-11
6.314315368e-11
6.701143532e-11
7.687119077e-11
7.518427096e-11
8.140842337e-11
9.283875934e-11
7.474799859e-11
7.841268646e-11
7.399179316e-11
9.836487597e-11
1.074102563e-10
1.081955466e-10
9.260608075e-11
1.086609038e-10
1.097370423e-10
1.140997659e-10
1.067703902e-10
1.071194081e-10
1.121801675e-10
9.862663939e-11
1.261117984e-10
8.984302244e-11
9.862663939e-11
9.467110328e-11
8.181561091e-11
9.342045583e-11
1.091844306e-10
1.131108819e-10
1.211673783e-10
1.196549674e-10
1.181134717e-10
1.269843431e-10
1.158448554e-10
1.055779124e-10
2.606000262e-11
1.00342644e-11
1.541495691e-11
2.033029222e-11
2.504203377e-11
3.210964609e-11
4.691382169e-11
5.339973752e-11
4.903701386e-11
7.611498534e-11
7.352643597e-11
7.716203902e-11
9.219889321e-11
8.079764206e-11
8.425873616e-11
8.990119208e-11
8.33571066e-11
9.929559035e-11
1.006044074e-10
9.699788923e-11
9.007570103e-11
1.004589833e-10
1.056651669e-10
1.060432696e-10
1.049671311e-10
1.114239621e-10
1.116857255e-10
1.038909926e-10
1.047344525e-10
1.273915307e-10
1.035128899e-10
1.087772431e-10
1.064213723e-10
1.054615731e-10
1.247157268e-10
1.259663743e-10
1.023494969e-10
1.10115145e-10
1.033383809e-10
1.222726016e-10
1.119765738e-10
9.400215232e-11
2.143551555e-11
1.01506037e-11
1.59966534e-11
2.984102979e-11
3.263317293e-11
3.350571766e-11
3.975895489e-11
5.107295157e-11
5.561018417e-11
5.322522857e-11
6.32885778e-11
5.671540749e-11
6.072911326e-11
7.884895883e-11
7.111239555e-11
1.005753226e-10
8.457866923e-11
7.800549892e-11
7.960516426e-11
8.803976333e-11
7.535877991e-11
8.01286911e-11
9.935376e-11
1.035710595e-10
9.246065663e-11
9.490378187e-11
9.397306749e-11
1.00837086e-10
9.70851437e-11
1.20382088e-10
1.001972199e-10
1.156703465e-10
1.16252043e-10
1.045890284e-10
9.48165274e-11
1.312888971e-10
1.121801675e-10
1.099988057e-10
9.984820201e-11
1.232905704e-10
1.087481583e-10
1.059269303e-10
2.57982392e-11
1.244830482e-11
1.913781443e-11
3.242957916e-11
4.217299532e-11
4.487788398e-11
4.813538431e-11
5.526116628e-11
6.017650159e-11
6.657516295e-11
6.957089986e-11
8.149567785e-11
6.608072094e-11
7.32065029e-11
7.2363043e-11
9.458384881e-11
7.806366857e-11
8.545121396e-11
9.961552342e-11
8.987210726e-11
1.258209502e-10
1.098824664e-10
8.955217419e-11
8.757440614e-11
1.078756135e-10
9.679429546e-11
9.286784417e-11
9.507829082e-11
8.039045452e-11
9.580541143e-11
1.163974671e-10
1.084282252e-10
1.062759482e-10
1.163974671e-10
1.024367514e-10
9.295509864e-11
8.498585677e-11
8.565480773e-11
9.699788923e-11
9.984820201e-11
1.002844744e-10
1.061305241e-10
4.252201321e-11
2.323877466e-11
2.661261429e-11
3.874098604e-11
3.699589658e-11
3.798478061e-11
5.438862155e-11
4.255109803e-11
4.528507152e-11
5.072393368e-11
6.392844393e-11
9.007570103e-11
7.849994094e-11
7.210127958e-11
7.945974014e-11
1.003717289e-10
8.184469574e-11
8.952308937e-11
1.042690953e-10
1.128200337e-10
9.333320136e-11
7.730746314e-11
8.033228487e-11
9.542730871e-11
9.202438426e-11
1.056651669e-10
1.025821755e-10
8.780708473e-11
8.481134782e-11
9.048288857e-11
1.027275996e-10
1.061014393e-10
1.276242093e-10
1.049962159e-10
9.752141607e-11
9.397306749e-11
8.527670501e-11
7.835451681e-11
8.236822258e-11
8.847603569e-11
8.10884903e-11
9.667795616e-11
2.998645391e-11
9.132634848e-12
1.858520276e-11
2.396589527e-11
3.04518111e-11
4.627395555e-11
4.284194628e-11
3.903183429e-11
4.50233081e-11
5.052033991e-11
6.232877859e-11
6.416112253e-11
7.454440482e-11
6.128172492e-11
7.783098998e-11
9.388581302e-11
7.361369044e-11
1.049380463e-10
1.036873988e-10
1.321614419e-10
9.379855855e-11
8.905773218e-11
9.435117021e-11
1.018841397e-10
1.078174439e-10
1.033383809e-10
1.348663305e-10
1.220980926e-10
1.010697646e-10
1.045890284e-10
1.093589396e-10
1.209637845e-10
1.098242968e-10
1.122965068e-10
1.017096308e-10
1.188115075e-10
9.996454131e-11
8.798159368e-11
7.989601251e-11
9.792860361e-11
8.818518745e-11
9.449659433e-11
1.355352815e-11
1.404797016e-11
3.251683363e-11
4.272560698e-11
4.604127696e-11
5.64827289e-11
4.732100923e-11
6.099087667e-11
5.380692506e-11
7.58241371e-11
6.433563148e-11
7.8819874e-11
7.861628023e-11
8.882505358e-11
8.853420534e-11
8.739989719e-11
8.827244192e-11
1.027275996e-10
9.807402773e-11
1.108713504e-10
1.150013955e-10
9.789951878e-11
1.034256354e-10
1.123837613e-10
1.08951752e-10
1.17735369e-10
1.272751914e-10
1.231451463e-10
1.148559714e-10
1.181716414e-10
1.163102126e-10
1.221271775e-10
1.237268428e-10
1.250647447e-10
1.211092086e-10
1.366986745e-10
1.349826698e-10
1.255591867e-10
1.349826698e-10
1.300673345e-10
1.258209502e-10
1.28991196e-10
6.546993963e-11
5.383600988e-11
5.860592108e-11
7.803458375e-11
8.484043265e-11
8.766166061e-11
1.051707249e-10
9.472927293e-11
1.174154359e-10
9.394398267e-11
1.120056586e-10
1.524917341e-10
1.20382088e-10
1.507466446e-10
1.357097904e-10
1.355352815e-10
1.302127586e-10
1.454822914e-10
1.318996785e-10
1.198585612e-10
1.802968262e-10
1.767193928e-10
1.499322696e-10
1.427192331e-10
1.405378713e-10
1.428355724e-10
1.635730522e-10
2.055715385e-10
1.752069819e-10
1.369604379e-10
1.519972921e-10
1.617407082e-10
1.620024717e-10
1.543822477e-10
1.494378275e-10
1.687501509e-10
1.628750164e-10
1.956245286e-10
2.03186583e-10
1.969333457e-10
2.297119428e-10
1.579596811e-10
8.452049958e-11
9.155902707e-11
7.227578852e-11
9.228614768e-11
7.663851218e-11
1.251519992e-10
1.201203246e-10
1.93414082e-10
1.360878932e-10
1.329467321e-10
1.483035194e-10
1.938212695e-10
2.127554902e-10
1.688664902e-10
1.661325167e-10
1.728220263e-10
1.770684107e-10
2.076947307e-10
1.557783193e-10
2.002781005e-10
2.135698652e-10
2.006271184e-10
2.155476333e-10
1.750033881e-10
1.780863795e-10
2.009761363e-10