/*--------------------------------*- C++ -*----------------------------------*\
| =========                 |                                                 |
| \\      /  F ield         | OpenFOAM: The Open Source CFD Toolbox           |
|  \\    /   O peration     | Version:  v1706                                 |
|   \\  /    A nd           | Web:      www.OpenFOAM.com                      |
|    \\/     M anipulation  |                                                 |
\*---------------------------------------------------------------------------*/
FoamFile
{
    version     2.0;
    format      ascii;
    class       volScalarField;
    location    "3.989";
    object      rhoM_mixture;
}
// * * * * * * * * * * * * * * * * * * * * * * * * * * * * * * * * * * * * * //

dimensions      [1 -3 0 0 0 0 0];


internalField   nonuniform List<scalar> 
50792
(
1.445425701e-11
2.827222564e-11
5.535701485e-11
3.67556747e-11
4.492800996e-11
6.566004804e-11
7.501009977e-11
6.990837139e-11
8.261379857e-11
7.749627056e-11
9.632621117e-11
8.526345734e-11
1.149507191e-10
1.004144491e-10
1.077250229e-10
1.372560773e-10
1.108010715e-10
1.149757633e-10
1.205536697e-10
1.188530269e-10
1.446423842e-10
1.448961665e-10
1.326875207e-10
1.432661154e-10
1.587434827e-10
1.3099292e-10
1.607584293e-10
1.801531909e-10
1.539002777e-10
1.595663768e-10
1.822212533e-10
1.575959519e-10
1.535625435e-10
1.587853899e-10
1.615330614e-10
1.535528611e-10
1.647380964e-10
1.48026144e-10
1.551983741e-10
1.627147809e-10
1.743722537e-10
1.740523206e-10
2.203261136e-11
1.167827628e-11
1.684265275e-11
2.451640532e-11
4.079916582e-11
4.485761843e-11
4.827814389e-11
6.231352939e-11
5.814224017e-11
7.153361886e-11
7.100381221e-11
8.017091101e-11
8.530266244e-11
9.810602729e-11
1.115303938e-10
1.077678683e-10
9.749968689e-11
1.069282489e-10
1.115616178e-10
1.14292689e-10
1.144414532e-10
1.189553804e-10
1.301201125e-10
1.311306632e-10
1.434386853e-10
1.258080027e-10
1.260047537e-10
1.357981583e-10
1.39022333e-10
1.439705311e-10
1.417713681e-10
1.40394236e-10
1.335930908e-10
1.207984701e-10
1.228690719e-10
1.475201806e-10
1.306023952e-10
1.675079725e-10
1.517009521e-10
1.465235156e-10
1.168252704e-10
1.220234729e-10
1.068231182e-11
1.18659078e-11
2.177879154e-11
3.062875942e-11
3.735937557e-11
4.889312842e-11
7.546341022e-11
5.958606089e-11
6.790422058e-11
8.413349003e-11
8.790963845e-11
7.597163781e-11
1.013775509e-10
9.239024008e-11
9.904492295e-11
9.040409059e-11
1.039939842e-10
1.235219606e-10
1.304342286e-10
1.295079552e-10
1.265515234e-10
1.191004668e-10
1.369812539e-10
1.401032502e-10
1.239634744e-10
1.369186433e-10
1.323587058e-10
1.140256841e-10
1.400743655e-10
1.44139861e-10
1.375773114e-10
1.516984877e-10
1.372274929e-10
1.494824868e-10
1.551954719e-10
1.43237631e-10
1.468495909e-10
1.512706844e-10
1.606622805e-10
1.435669463e-10
1.423516009e-10
1.429565027e-10
1.114262764e-11
1.698897756e-11
2.033727258e-11
2.855939606e-11
3.758357266e-11
3.619478168e-11
4.741668266e-11
4.901200717e-11
6.014001108e-11
7.382420203e-11
9.651534384e-11
9.78549846e-11
1.083469878e-10
8.620405431e-11
9.910863435e-11
1.197219938e-10
1.229710877e-10
1.159598687e-10
1.084482406e-10
1.581981891e-10
1.551047773e-10
1.506294547e-10
1.205499293e-10
1.529985106e-10
1.642105915e-10
1.360326383e-10
1.290365558e-10
1.283190551e-10
1.481651882e-10
1.581831901e-10
1.35210257e-10
1.423485611e-10
1.342204723e-10
1.264446664e-10
1.393078397e-10
1.266950086e-10
1.341856706e-10
1.485825586e-10
1.783848586e-10
1.541535596e-10
1.48871005e-10
1.45446539e-10
1.34685129e-11
2.327504e-11
2.027226018e-11
3.362503424e-11
3.824972147e-11
4.371826891e-11
6.968257308e-11
5.691319681e-11
7.075721042e-11
7.452961847e-11
7.978996861e-11
7.086392984e-11
8.723294404e-11
8.616084614e-11
1.03916312e-10
1.091333164e-10
1.195880285e-10
1.168128109e-10
1.318732081e-10
1.363670324e-10
1.339998405e-10
1.826576883e-10
1.71126575e-10
1.479310085e-10
1.69950222e-10
1.619493309e-10
1.459516392e-10
1.280202883e-10
1.351634711e-10
1.583307909e-10
1.556031598e-10
1.222176219e-10
1.382097343e-10
1.191232718e-10
1.292834954e-10
1.395136351e-10
1.370183198e-10
1.486600305e-10
1.636860014e-10
1.382345408e-10
1.413042095e-10
1.290937247e-10
3.011471486e-11
1.164535101e-11
2.842245345e-11
2.634460858e-11
3.683688703e-11
3.736655608e-11
4.173231957e-11
5.637838631e-11
6.69027519e-11
6.098437168e-11
6.715853572e-11
9.508614685e-11
7.954099e-11
9.317563041e-11
8.801499431e-11
9.658947575e-11
9.810802883e-11
1.036839337e-10
1.291235726e-10
1.377254376e-10
1.402077304e-10
1.681412586e-10
1.781605239e-10
1.724441738e-10
1.285986447e-10
1.36363292e-10
1.424364786e-10
1.638179026e-10
1.688028288e-10
1.245982992e-10
1.542235133e-10
1.237741416e-10
1.472128072e-10
1.350710752e-10
1.323045767e-10
1.421046239e-10
1.217093818e-10
1.364449047e-10
1.270094999e-10
1.426909989e-10
1.411722457e-10
1.183771491e-10
2.195139902e-11
1.01295e-11
1.848512595e-11
2.38234109e-11
2.89917279e-11
3.733353074e-11
6.335002496e-11
6.271246059e-11
6.138437871e-11
6.275096515e-11
7.137199481e-11
7.748364837e-11
9.229370348e-11
8.134384881e-11
7.841396244e-11
8.266418725e-11
1.126221943e-10
1.077970532e-10
1.184898856e-10
1.439327646e-10
1.428886507e-10
1.648494569e-10
1.607856627e-10
1.398698335e-10
1.663345218e-10
1.65872905e-10
1.451556657e-10
1.523284963e-10
1.284939644e-10
1.368065448e-10
1.598873732e-10
1.498400488e-10
1.400055752e-10
1.314953056e-10
1.436768056e-10
1.265869506e-10
1.343193107e-10
1.582066331e-10
1.516712293e-10
1.71753919e-10
1.622490609e-10
1.272850239e-10
1.8605706e-11
1.174522767e-11
1.74196081e-11
2.494309533e-11
3.270380214e-11
4.18674608e-11
5.617749461e-11
5.870647326e-11
6.127087909e-11
7.827431776e-11
7.547853433e-11
7.539218054e-11
8.46191503e-11
9.729943318e-11
1.027692191e-10
1.247476639e-10
1.422120813e-10
1.306117774e-10
1.246261831e-10
1.309752564e-10
1.167922826e-10
1.368054815e-10
1.404512673e-10
1.279375123e-10
1.465978477e-10
1.635206495e-10
1.626910752e-10
1.437017873e-10
1.445772342e-10
1.535777051e-10
1.648862601e-10
1.490985421e-10
1.437824617e-10
1.445520274e-10
1.453070945e-10
1.330183371e-10
1.633434259e-10
1.724184916e-10
1.625435119e-10
1.399564875e-10
1.429037748e-10
1.418640017e-10
2.325079639e-11
1.809744088e-11
3.189436835e-11
3.538968872e-11
4.799947999e-11
5.28398828e-11
5.375273346e-11
7.234201436e-11
7.543114795e-11
7.937166003e-11
8.040759267e-11
9.114233223e-11
8.526779818e-11
1.010892421e-10
1.027444751e-10
1.120701831e-10
1.137567026e-10
1.035311664e-10
1.174320111e-10
1.293215621e-10
1.138428563e-10
1.498751882e-10
1.093246257e-10
1.170784898e-10
1.351318468e-10
1.491401115e-10
1.261743214e-10
1.383551209e-10
1.306087751e-10
1.54802145e-10
1.71859425e-10
1.55785187e-10
1.624814393e-10
1.414729765e-10
1.570298174e-10
1.375594852e-10
1.777620556e-10
1.897568623e-10
1.586659482e-10
1.688168146e-10
1.558668622e-10
1.245043646e-10
3.045909169e-11
1.066484841e-11
2.429494784e-11
2.353590272e-11
5.090342144e-11
5.451217888e-11
5.573173997e-11
6.515692437e-11
7.614674722e-11
8.340737018e-11
8.473264992e-11
1.046500127e-10
9.123896891e-11
9.44678848e-11
9.979598694e-11
1.051641198e-10
9.693565396e-11
1.103076928e-10
1.382266223e-10
1.352882544e-10
1.579052643e-10
1.275653516e-10
1.411017791e-10
1.271410009e-10
1.31174772e-10
1.207125166e-10
1.415226271e-10
1.449257518e-10
1.538887564e-10
1.767774874e-10
1.369172047e-10
1.468498911e-10
1.171579883e-10
1.537525519e-10
1.276260232e-10
1.417029781e-10
1.581863926e-10
1.641666828e-10
1.462490299e-10
1.644697529e-10
1.580975744e-10
1.322496095e-10
3.00849295e-11
1.138014745e-11
2.249288965e-11
3.013531817e-11
5.12291965e-11
5.969187962e-11
5.117306591e-11
6.937402375e-11
9.152721516e-11
8.507408699e-11
9.181238404e-11
8.155158326e-11
9.099944756e-11
8.523417237e-11
1.108765419e-10
1.07034568e-10
1.110413309e-10
1.088170236e-10
1.066399026e-10
1.199942778e-10
1.161265967e-10
1.543095669e-10
1.443002466e-10
1.312928502e-10
1.216899794e-10
1.254943495e-10
1.282696297e-10
1.44422528e-10
1.397083846e-10
1.467967003e-10
1.431807624e-10
1.283143765e-10
1.5227149e-10
1.425199927e-10
1.554670178e-10
1.357648327e-10
1.569154421e-10
1.597123639e-10
1.699265163e-10
1.469049209e-10
1.529287195e-10
1.311014408e-10
2.293460369e-11
2.00484634e-11
2.444945393e-11
3.192415371e-11
4.038269615e-11
6.129418448e-11
5.05727051e-11
7.158821077e-11
8.644157412e-11
8.118874225e-11
9.057709838e-11
1.202400165e-10
1.091099109e-10
1.117139597e-10
1.016476332e-10
1.021778026e-10
1.132037907e-10
1.213320171e-10
1.49555618e-10
1.470665449e-10
1.373801976e-10
1.392905764e-10
1.338553546e-10
1.286845356e-10
1.23080947e-10
1.338016633e-10
1.413241123e-10
1.384899994e-10
1.536196123e-10
1.385998587e-10
1.582664415e-10
1.453362168e-10
1.523402178e-10
1.196100704e-10
1.142721858e-10
1.233665538e-10
1.276774877e-10
1.422780695e-10
1.390725591e-10
1.438111838e-10
1.336047122e-10
1.147922725e-10
3.884607921e-11
1.624713315e-11
1.994988774e-11
2.844185584e-11
4.054872359e-11
5.704679936e-11
7.031055509e-11
6.352767382e-11
7.642821326e-11
8.185225154e-11
7.17780815e-11
1.0715775e-10
1.014476422e-10
9.857682616e-11
9.03093929e-11
8.909861356e-11
1.080604179e-10
1.095543646e-10
1.358574037e-10
1.585330837e-10
1.327835944e-10
1.239247447e-10
1.559067678e-10
1.354159524e-10
1.411418224e-10
1.302935832e-10
1.414284674e-10
1.604515437e-10
1.77068861e-10
1.691175204e-10
1.490974788e-10
1.516856279e-10
1.73207835e-10
1.697399607e-10
1.644182384e-10
1.675683813e-10
1.64415799e-10
1.383754615e-10
1.331148111e-10
1.393318206e-10
1.328630304e-10
1.113438006e-10
4.608439755e-11
3.294944068e-11
2.743216834e-11
3.406664821e-11
4.731620554e-11
5.323254669e-11
5.483669047e-11
8.450444976e-11
7.975758125e-11
7.440993911e-11
7.488915694e-11
9.185633027e-11
6.843018679e-11
1.027018298e-10
9.816943846e-11
9.949849609e-11
9.722954203e-11
1.12172299e-10
1.158361237e-10
1.055104731e-10
1.106146409e-10
1.291021061e-10
1.470222735e-10
1.633623279e-10
1.568345675e-10
1.58398643e-10
1.667587099e-10
1.74766719e-10
1.764022869e-10
1.377316548e-10
1.458578422e-10
1.647640163e-10
1.595311873e-10
1.369042197e-10
1.413914014e-10
1.868715227e-10
1.740607771e-10
1.539034927e-10
1.601497496e-10
1.470291162e-10
1.482249966e-10
1.212971529e-10
6.619961219e-11
1.344316844e-11
2.555771709e-11
3.382184781e-11
3.875718598e-11
4.850344182e-11
6.596879753e-11
7.500109286e-11
7.22280769e-11
8.333353851e-11
7.86131153e-11
8.124357184e-11
7.612878343e-11
9.149863071e-11
1.007125404e-10
1.017835375e-10
8.968939201e-11
1.121160308e-10
1.275372675e-10
1.20051747e-10
1.012894958e-10
1.209174489e-10
1.367279094e-10
1.55126519e-10
1.424368163e-10
1.5410511e-10
1.191876212e-10
1.357901146e-10
1.516776092e-10
1.74693788e-10
1.611373201e-10
1.516365027e-10
1.560398075e-10
1.479866136e-10
1.754476667e-10
1.489892833e-10
1.570160943e-10
1.617691426e-10
1.542483949e-10
1.267628356e-10
1.358282814e-10
1.108387379e-10
3.192859462e-11
1.010365516e-11
1.606958437e-11
2.350267722e-11
4.096913378e-11
4.491488738e-11
4.682610436e-11
6.379841913e-11
6.816438277e-11
8.140879866e-11
8.255138817e-11
7.795528538e-11
8.299190129e-11
1.031857888e-10
9.680793092e-11
1.146501884e-10
1.343789439e-10
1.280967595e-10
1.224638859e-10
1.544915941e-10
1.36485711e-10
1.478745777e-10
1.222532492e-10
1.415562279e-10
1.343995848e-10
1.352233421e-10
1.676214346e-10
1.656352851e-10
1.413294539e-10
1.565937451e-10
1.329444053e-10
1.221203097e-10
1.379067267e-10
1.25463701e-10
1.517948117e-10
1.221632552e-10
1.467379302e-10
1.202256554e-10
1.266977857e-10
1.340199809e-10
1.335799682e-10
1.319735226e-10
2.239341329e-11
1.158748159e-11
1.705906886e-11
2.398015622e-11
3.685939181e-11
3.99868298e-11
5.395362516e-11
7.054399677e-11
7.018095561e-11
8.909441033e-11
6.415645645e-11
7.781784239e-11
1.017624338e-10
8.913741834e-11
1.092704341e-10
1.019246583e-10
9.790127013e-11
1.147716692e-10
1.561593117e-10
1.269573099e-10
1.083421842e-10
1.150787799e-10
1.216604317e-10
1.421191225e-10
1.438638116e-10
1.213315168e-10
1.622573423e-10
1.440508427e-10
1.620233627e-10
1.480918945e-10
1.435514219e-10
1.451663489e-10
1.602683531e-10
1.706021474e-10
1.843798351e-10
1.783137666e-10
1.8091744e-10
1.674916725e-10
1.671899409e-10
1.8654885e-10
1.53154793e-10
1.197460748e-10
4.617785679e-11
1.361069703e-11
1.846232094e-11
2.316043953e-11
3.218875681e-11
3.829436824e-11
4.910714269e-11
5.299956786e-11
7.672534132e-11
7.660272221e-11
7.609849768e-11
7.97706663e-11
8.348434176e-11
8.547977338e-11
9.40856414e-11
1.170728104e-10
1.072863487e-10
1.212225581e-10
1.497935381e-10
1.462525326e-10
1.198114875e-10
1.251643337e-10
1.177354816e-10
1.467769977e-10
1.288440206e-10
1.375035798e-10
1.292384858e-10
1.050011697e-10
1.173316716e-10
1.119852679e-10
1.330280571e-10
1.339749338e-10
1.226117119e-10
1.291680192e-10
1.470735878e-10
1.720530486e-10
1.835640965e-10
1.395887678e-10
1.511351428e-10
1.59907251e-10
1.415414291e-10
1.137525619e-10
2.916533615e-11
1.084693818e-11
2.190311196e-11
2.685855306e-11
3.382688918e-11
4.862896316e-11
6.90963356e-11
5.653943492e-11
6.832697007e-11
7.906160955e-11
9.722450067e-11
8.87687979e-11
1.051206865e-10
1.126925233e-10
1.221373728e-10
1.150149309e-10
1.220485546e-10
1.317015139e-10
1.334032575e-10
1.359200769e-10
1.293087398e-10
1.307097526e-10
1.384126275e-10
1.781596983e-10
1.453401573e-10
1.378878247e-10
1.730057674e-10
1.568521685e-10
1.577274528e-10
1.679305843e-10
1.603171406e-10
1.755615291e-10
1.412922878e-10
1.391125273e-10
1.484734999e-10
1.504137016e-10
1.656160828e-10
1.454742227e-10
1.287643719e-10
1.34656507e-10
1.359670254e-10
1.151824595e-10
4.132095382e-11
1.149982681e-11
2.019084769e-11
3.529539134e-11
4.756938737e-11
5.175490001e-11
6.364949232e-11
6.094186405e-11
6.666663316e-11
9.935731273e-11
1.067725043e-10
8.78686695e-11
9.830508007e-11
1.095635466e-10
1.069666158e-10
1.265765676e-10
1.250192098e-10
1.386912164e-10
1.052487097e-10
1.485750528e-10
1.382387816e-10
1.37330572e-10
1.490635152e-10
1.794883807e-10
1.500581036e-10
1.483774261e-10
1.600809468e-10
1.584998207e-10
1.312138771e-10
1.368851176e-10
1.358353618e-10
1.20399664e-10
1.321093644e-10
1.470447032e-10
1.264862733e-10
1.141707704e-10
1.34416748e-10
1.370864096e-10
1.43403058e-10
1.312264992e-10
1.285835206e-10
1.235770904e-10
6.818618701e-11
1.428308813e-11
2.968322116e-11
3.62822363e-11
5.689313141e-11
5.361398947e-11
6.20985769e-11
7.430482093e-11
8.847611075e-11
9.187519475e-11
9.193236363e-11
1.210024642e-10
1.041338665e-10
1.60699409e-10
1.184390591e-10
1.330757437e-10
1.710635266e-10
1.568294636e-10
1.49474243e-10
1.612472545e-10
1.807547527e-10
1.55529128e-10
1.447956269e-10
1.403268093e-10
1.546250966e-10
1.474609101e-10
1.627471057e-10
1.512728235e-10
1.61365195e-10
1.353111345e-10
1.441010312e-10
1.347518427e-10
1.394318599e-10
1.261459371e-10
1.228757145e-10
1.394220773e-10
1.210861784e-10
1.391781776e-10
1.158842356e-10
1.039546164e-10
1.230418796e-10
1.12520216e-10
4.142367016e-11
9.975194063e-12
3.273756556e-11
2.845113796e-11
3.99455231e-11
4.7903081e-11
5.645926089e-11
5.573454212e-11
6.051507397e-11
7.169850793e-11
8.176983828e-11
9.346737935e-11
1.056576611e-10
1.111546929e-10
1.456849595e-10
1.284415992e-10
1.30334452e-10
1.505574244e-10
1.258764928e-10
1.38936317e-10
1.404379696e-10
1.381650125e-10
1.6450822e-10
1.772690897e-10
1.340915358e-10
1.440640278e-10
1.508496737e-10
1.423702653e-10
1.307739019e-10
1.407663216e-10
1.546690053e-10
1.458542019e-10
1.562084369e-10
1.718456894e-10
1.302829e-10
1.561545705e-10
1.311301628e-10
1.382919724e-10
1.080721394e-10
1.233299507e-10
1.13976759e-10
9.442617778e-11
1.417643127e-11
9.381776079e-12
1.968942532e-11
2.118871361e-11
3.753462259e-11
4.09304666e-11
4.361819209e-11
6.054175695e-11
6.178088305e-11
7.422090652e-11
8.117989797e-11
7.292785152e-11
8.201313753e-11
1.046246682e-10
9.224111311e-11
1.13638024e-10
1.151623566e-10
1.300547248e-10
1.250278914e-10
1.078586255e-10
1.201390014e-10
1.363413252e-10
1.567072823e-10
1.436930431e-10
1.78394441e-10
1.357247644e-10
1.42678039e-10
1.477774031e-10
1.328520094e-10
1.475609494e-10
1.672198263e-10
2.020954079e-10
1.895634889e-10
1.631404076e-10
1.826329193e-10
1.507819217e-10
1.780266587e-10
1.731561328e-10
1.590342684e-10
1.371204982e-10
1.287329853e-10
1.188744308e-10
4.378685905e-11
2.469111442e-11
2.230021676e-11
3.438862034e-11
4.252255112e-11
4.062355603e-11
5.023721009e-11
5.491926635e-11
6.961138093e-11
8.01177452e-11
9.669873461e-11
9.322261648e-11
1.036157814e-10
1.042369832e-10
1.09416221e-10
1.010370145e-10
1.178146173e-10
1.43233728e-10
1.31514708e-10
1.078676449e-10
1.091651408e-10
1.179115918e-10
1.309155481e-10
1.189801494e-10
1.586153218e-10
1.477862223e-10
1.495909826e-10
1.162782005e-10
1.153481867e-10
1.125042538e-10
1.242590638e-10
1.50960809e-10
1.611393967e-10
1.532389451e-10
1.32780417e-10
1.292131664e-10
1.447411601e-10
1.719867977e-10
1.480428068e-10
1.488342393e-10
1.363021201e-10
1.130562275e-10
5.401847494e-11
1.230037878e-11
1.913461197e-11
2.548852648e-11
3.095103178e-11
3.724537557e-11
5.000887232e-11
5.725223204e-11
6.952068632e-11
8.239484301e-11
9.101143176e-11
9.492202087e-11
1.075871796e-10
1.05976731e-10
1.220079109e-10
1.290486401e-10
1.248383585e-10
1.337943452e-10
1.163859582e-10
1.422420669e-10
1.114622415e-10
1.258718893e-10
1.259899299e-10
1.30679029e-10
1.394061151e-10
1.534938908e-10
1.415801338e-10
1.363678706e-10
1.370723863e-10
1.266041138e-10
1.412302152e-10
1.538772351e-10
1.474126856e-10
1.605301165e-10
1.434861718e-10
1.410890944e-10
1.246846155e-10
1.38623627e-10
1.203449345e-10
1.193007205e-10
1.274417317e-10
1.124894925e-10
5.595447343e-11
1.157759901e-11
2.005864622e-11
2.378968502e-11
3.285970931e-11
4.522864071e-11
6.467200216e-11
5.887116217e-11
6.313574799e-11
7.168070676e-11
6.713025151e-11
7.941416766e-11
1.057414129e-10
1.244972216e-10
1.307807446e-10
1.291039075e-10
1.319579357e-10
1.195647857e-10
1.05047718e-10
1.162331535e-10
1.082568687e-10
9.987506013e-11
1.363801925e-10
1.298356692e-10
1.273890037e-10
1.424463987e-10
1.687453597e-10
1.763516605e-10
1.566672391e-10
1.560391945e-10
1.606683602e-10
1.283365811e-10
1.577152935e-10
1.468333284e-10
1.666165257e-10
1.522331606e-10
1.16353133e-10
1.310815755e-10
1.435760283e-10
1.425262725e-10
1.255046699e-10
1.499960935e-10
1.911240742e-11
1.088894542e-11
3.09944401e-11
4.131815167e-11
3.567045422e-11
4.691719928e-11
4.991667656e-11
5.574626362e-11
6.368067876e-11
6.924326088e-11
8.514411574e-11
9.489387427e-11
9.755101378e-11
1.18844045e-10
1.163142657e-10
1.149735241e-10
1.453164767e-10
1.439042427e-10
1.278143552e-10
1.466266948e-10
1.430188756e-10
1.135415875e-10
1.184497423e-10
1.223971972e-10
1.431593209e-10
1.272887268e-10
1.50264437e-10
1.468221073e-10
1.681188789e-10
1.520900758e-10
1.688312131e-10
1.631937986e-10
1.583345313e-10
1.636249295e-10
1.501148097e-10
1.491450278e-10
1.381148615e-10
1.382669032e-10
1.207394623e-10
1.253241814e-10
1.126475388e-10
1.327108261e-10
3.117976985e-11
1.599211241e-11
1.967660298e-11
4.327077543e-11
4.676813486e-11
6.324530709e-11
5.685452678e-11
5.753125871e-11
6.68330609e-11
7.21379202e-11
8.84404834e-11
9.912957542e-11
8.997009497e-11
1.188177998e-10
1.141420859e-10
1.164942163e-10
1.269272868e-10
1.268151883e-10
1.248947893e-10
1.307282168e-10
1.548370343e-10
1.3298949e-10
1.339842535e-10
1.216243665e-10
1.412113132e-10
1.378854604e-10
1.713549878e-10
1.721728656e-10
1.79041325e-10
1.746035688e-10
1.604328419e-10
1.660332906e-10
1.574650514e-10
1.781178912e-10
1.750144216e-10
1.626220222e-10
1.696904977e-10
1.469813921e-10
1.612850835e-10
1.44906487e-10
1.307331581e-10
1.240314266e-10
4.909265657e-11
1.930588093e-11
4.300123104e-11
4.440872387e-11
3.628507598e-11
4.040249885e-11
5.703387694e-11
6.159909352e-11
7.439915584e-11
7.587884159e-11
8.219034855e-11
9.544778693e-11
1.093608911e-10
1.021153922e-10
1.089839518e-10
1.060831877e-10
1.145579551e-10
1.415129072e-10
1.20588634e-10
1.404452877e-10
1.348758253e-10
1.1711458e-10
1.221547361e-10
1.492095398e-10
1.532829164e-10
1.440033563e-10
1.621007971e-10
1.436899032e-10
1.684511714e-10
1.673493507e-10
1.398229851e-10
1.475616249e-10
1.512372587e-10
1.306784286e-10
1.322296067e-10
1.663793687e-10
1.520765154e-10
1.520851971e-10
1.593253168e-10
1.669762018e-10
1.583566358e-10
1.508517128e-10
2.779948778e-11
2.334536898e-11
3.613280911e-11
4.207649625e-11
4.130746847e-11
4.928379078e-11
6.036150609e-11
7.397450489e-11
7.881186786e-11
6.904036764e-11
8.085778823e-11
9.061202519e-11
1.120402977e-10
1.137363995e-10
1.258257038e-10
1.117160238e-10
1.300974702e-10
1.277288396e-10
1.559841647e-10
1.252687513e-10
1.347151395e-10
1.338608963e-10
1.340571094e-10
1.9285778e-10
1.571901029e-10
1.59794552e-10
1.374264081e-10
1.334929764e-10
1.161210549e-10
1.114051727e-10
1.242298789e-10
1.155669421e-10
1.100043975e-10
1.334706092e-10
1.217640487e-10
1.301899286e-10
1.39042436e-10
1.507008095e-10
1.410199038e-10
1.452899688e-10
1.089729308e-10
1.113447638e-10
2.794755143e-11
1.944566322e-11
2.111358095e-11
2.379726584e-11
3.164966803e-11
4.415928241e-11
6.690001229e-11
5.817740467e-11
8.258949241e-11
8.017037309e-11
7.17475956e-11
8.199657481e-11
8.487627266e-11
1.111433092e-10
1.061567817e-10
1.035263252e-10
1.209430936e-10
9.3569195e-11
1.183993536e-10
1.119708068e-10
1.453515035e-10
1.26762698e-10
1.359792473e-10
1.189139361e-10
1.488551178e-10
1.260256323e-10
1.386024983e-10
1.24676872e-10
1.414291304e-10
1.255449758e-10
1.51588691e-10
1.361681798e-10
1.314935042e-10
1.331662381e-10
1.376303771e-10
1.381864539e-10
1.311464253e-10
1.386201243e-10
1.770354103e-10
1.453517788e-10
1.547201946e-10
1.298302275e-10
4.242435075e-11
2.738815956e-11
1.913137198e-11
2.421283481e-11
3.150040346e-11
4.730852464e-11
5.661556836e-11
6.392758077e-11
6.126934041e-11
6.286680406e-11
7.959281729e-11
7.959645758e-11
7.812511574e-11
7.787437328e-11
1.047561692e-10
1.184484788e-10
1.119157396e-10
1.133443361e-10
1.156199328e-10
1.37399625e-10
1.67952251e-10
1.466142728e-10
1.500368373e-10
1.556398254e-10
1.572653982e-10
1.421394881e-10
1.298504305e-10
1.432985778e-10
1.480522515e-10
1.427141042e-10
1.532382696e-10
1.648096889e-10
1.437396538e-10
1.488437591e-10
1.245349506e-10
1.402186513e-10
1.496360922e-10
1.516567057e-10
1.275853545e-10
1.465050515e-10
1.226313144e-10
1.231696026e-10
2.346036975e-11
2.033293175e-11
2.84398543e-11
2.812212292e-11
3.752086202e-11
4.063507737e-11
4.51528075e-11
5.410649249e-11
8.304489196e-11
9.935427289e-11
9.144420144e-11
9.999694118e-11
1.024693514e-10
1.063574357e-10
1.389602228e-10
1.141068214e-10
1.274573562e-10
1.421969197e-10
1.201340601e-10
1.452151989e-10
1.618955646e-10
1.657637462e-10
1.759794373e-10
1.852159519e-10
1.577659199e-10
1.532421726e-10
1.247052188e-10
1.243825836e-10
1.364869495e-10
1.394556031e-10
1.502309113e-10
1.597159416e-10
1.551239795e-10
1.646257977e-10
1.378040479e-10
1.43934003e-10
1.450668476e-10
1.517973261e-10
1.523524397e-10
1.560451741e-10
1.489868814e-10
1.296675777e-10
1.659454982e-11
1.087298317e-11
2.184738168e-11
2.585106725e-11
3.180771434e-11
3.975615274e-11
6.0190062e-11
6.796068893e-11
8.637262119e-11
7.840357947e-11
9.513633537e-11
9.307809305e-11
9.257860966e-11
1.076688924e-10
1.233128876e-10
1.183979526e-10
1.249878857e-10
1.47394997e-10
1.174886796e-10
1.335434026e-10
1.386353485e-10
1.322621317e-10
1.509843146e-10
1.374326879e-10
1.281098821e-10
1.499409012e-10
1.567066443e-10
1.408473338e-10
1.547454765e-10
1.250476941e-10
1.265263791e-10
1.333610126e-10
1.534990698e-10
1.347348796e-10
1.53223746e-10
1.40504896e-10
1.320536341e-10
1.642728518e-10
1.452297976e-10
1.481360408e-10
1.388890682e-10
1.293177216e-10
1.561330916e-11
1.145387904e-11
2.874252412e-11
3.702571947e-11
5.877168581e-11
5.02420513e-11
6.230137006e-11
7.406286021e-11
6.596101656e-11
8.868588426e-11
8.871757108e-11
7.183110971e-11
8.093011874e-11
8.580374705e-11
9.899019344e-11
9.97490384e-11
9.273895774e-11
1.180692378e-10
1.00968662e-10
9.837313231e-11
1.046755573e-10
1.353332014e-10
1.177064968e-10
1.444595564e-10
1.351183865e-10
1.246466488e-10
1.290396582e-10
1.305601503e-10
1.173236154e-10
1.373440323e-10
1.121785413e-10
1.302871032e-10
1.352367649e-10
1.438584951e-10
1.277821305e-10
1.416153233e-10
1.517137745e-10
1.652904829e-10
1.596783377e-10
1.263527709e-10
1.273276692e-10
1.356632547e-10
2.709323319e-11
1.069009279e-11
1.933162569e-11
2.759465556e-11
3.438838266e-11
4.058284978e-11
5.463021949e-11
6.813739956e-11
7.696496275e-11
9.053509114e-11
1.016241902e-10
1.060175374e-10
1.056962658e-10
1.152991991e-10
1.006971161e-10
1.063221086e-10
1.025657254e-10
1.323545651e-10
1.329606678e-10
1.399259016e-10
1.223096801e-10
1.349090508e-10
1.338587572e-10
1.385537358e-10
1.313904876e-10
1.308424169e-10
1.404218447e-10
1.204225691e-10
1.560812017e-10
1.321390872e-10
1.332808386e-10
1.310530286e-10
1.209220274e-10
1.40766797e-10
1.476595626e-10
1.443760798e-10
1.511035561e-10
1.539104606e-10
1.681178531e-10
1.713403891e-10
1.632244221e-10
1.430562793e-10
3.356896621e-11
1.12968335e-11
2.063136081e-11
2.993246247e-11
3.637193015e-11
4.440308204e-11
6.199819986e-11
6.848411569e-11
7.26603462e-11
9.48873943e-11
9.947555348e-11
1.127133268e-10
1.199421879e-10
1.081422307e-10
1.118359033e-10
1.158503096e-10
1.123961959e-10
1.342155936e-10
1.398769515e-10
1.222160457e-10
1.167225541e-10
1.307938672e-10
1.342058736e-10
1.425913224e-10
1.495225301e-10
1.434201211e-10
1.438812375e-10
1.437948212e-10
1.469640663e-10
1.753691564e-10
1.374693535e-10
1.545619856e-10
1.442319943e-10
1.391854582e-10
1.703343419e-10
1.789278254e-10
1.481342395e-10
1.502515521e-10
1.438070431e-10
1.556310062e-10
1.441720858e-10
1.233402711e-10
4.535787741e-11
1.413766401e-11
2.088080227e-11
3.671870882e-11
3.947762646e-11
4.530077107e-11
4.786597752e-11
6.070834732e-11
7.129262138e-11
7.03695879e-11
8.608127257e-11
7.897649422e-11
7.481672635e-11
9.559461213e-11
8.639612674e-11
1.144635827e-10
1.086007076e-10
9.794080047e-11
1.141264614e-10
1.149524204e-10
1.032682021e-10
1.231889424e-10
1.340079592e-10
1.441393982e-10
1.241577861e-10
1.326479528e-10
1.437780959e-10
1.320690585e-10
1.280513121e-10
1.635087904e-10
1.40400078e-10
1.578002837e-10
1.542287924e-10
1.565204889e-10
1.512334308e-10
1.816919846e-10
1.414186098e-10
1.380079044e-10
1.366288334e-10
1.531270718e-10
1.353950113e-10
1.290518801e-10
2.772531835e-11
1.317926588e-11
2.186230564e-11
3.532019788e-11
4.742262472e-11
5.315103412e-11
6.428297856e-11
6.602622911e-11
7.622441934e-11
8.26895317e-11
8.601752363e-11
9.787585062e-11
8.478667889e-11
9.443759905e-11
9.990698463e-11
1.318296372e-10
1.042785901e-10
1.140251462e-10
1.298507308e-10
1.201073146e-10
1.632328661e-10
1.321435531e-10
1.140725951e-10
1.256840576e-10
1.511684434e-10
1.341729859e-10
1.483544335e-10
1.314602161e-10
1.139149866e-10
1.346127984e-10
1.611189935e-10
1.696628264e-10
1.635567146e-10
1.593912674e-10
1.411112364e-10
1.355169674e-10
1.218329391e-10
1.204419089e-10
1.301237153e-10
1.330404791e-10
1.333438494e-10
1.464995097e-10
4.531295542e-11
2.646164841e-11
3.073257661e-11
4.472157651e-11
4.460453667e-11
4.801888239e-11
7.498843314e-11
6.049286942e-11
7.113451253e-11
6.614056687e-11
7.814895904e-11
1.074194134e-10
9.497979021e-11
9.904716217e-11
1.137816843e-10
1.301750047e-10
1.099534709e-10
1.10920313e-10
1.327101255e-10
1.330543647e-10
1.251632328e-10
1.039543162e-10
1.028591756e-10
1.175222679e-10
1.297021042e-10
1.33308785e-10
1.247435857e-10
1.11164613e-10
1.091656412e-10
1.153355645e-10
1.377805048e-10
1.402572559e-10
1.669632043e-10
1.495848404e-10
1.442032472e-10
1.419839187e-10
1.154122358e-10
1.210825131e-10
1.208101291e-10
1.217679893e-10
1.120546587e-10
1.275112225e-10
3.553511284e-11
1.375097971e-11
2.433321471e-11
3.217259441e-11
4.008720685e-11
6.36841189e-11
5.636472582e-11
5.139172124e-11
5.768222458e-11
6.341183491e-11
7.840992184e-11
8.210289392e-11
9.909805123e-11
8.380861566e-11
1.078003933e-10
1.124920945e-10
9.63067087e-11
1.256707599e-10
1.243536614e-10
1.487741932e-10
1.134016051e-10
1.082620727e-10
1.125587456e-10
1.24444256e-10
1.309091682e-10
1.349026084e-10
1.625763997e-10
1.458211015e-10
1.219353803e-10
1.25986252e-10
1.338129095e-10
1.498367462e-10
1.310221674e-10
1.319992299e-10
1.337057898e-10
1.508741175e-10
1.40599331e-10
1.204096842e-10
1.024893543e-10
1.29293478e-10
1.135030204e-10
1.178541226e-10
1.388578318e-11
1.624085333e-11
3.590583489e-11
4.674589279e-11
5.484603514e-11
6.306137841e-11
5.921573915e-11
7.54771958e-11
6.586778249e-11
9.333397695e-11
8.742735577e-11
9.433618371e-11
1.022396126e-10
1.078964921e-10
1.052466331e-10
1.036139424e-10
1.049184187e-10
1.20403567e-10
1.191722219e-10
1.31072456e-10
1.387244043e-10
1.181670754e-10
1.36850491e-10
1.41123821e-10
1.467291485e-10
1.662778283e-10
1.545201035e-10
1.510545685e-10
1.429979721e-10
1.483403977e-10
1.464789689e-10
1.569142787e-10
1.57849434e-10
1.583899238e-10
1.553314763e-10
1.669006563e-10
1.681417214e-10
1.80314815e-10
1.605995323e-10
1.596048063e-10
1.576177561e-10
1.60522198e-10
9.500741142e-11
9.217823986e-11
7.515222136e-11
1.07206575e-10
1.240133002e-10
1.056366575e-10
1.178960924e-10
1.161597221e-10
1.611734228e-10
1.520553867e-10
1.432708565e-10
1.932262003e-10
1.837763469e-10
1.786228413e-10
1.728559023e-10
1.722162363e-10
1.742033241e-10
1.808010007e-10
1.71138997e-10
1.669390983e-10
2.30068629e-10
2.133338966e-10
1.961821691e-10
2.019935297e-10
1.956922056e-10
2.157987761e-10
2.566376849e-10
2.692980525e-10
2.261416774e-10
1.879283588e-10
2.078161364e-10
2.152005419e-10
2.165919724e-10
2.064466102e-10
2.039941028e-10
2.216119255e-10
2.134774568e-10
2.563607473e-10
2.601350944e-10
2.570715054e-10
2.874910917e-10
2.145759375e-10
1.046551541e-10
1.166442815e-10
1.219811404e-10
1.240497281e-10
1.221242252e-10
1.921678379e-10
1.750088548e-10
2.720920721e-10
2.008111722e-10
2.439531362e-10
1.852170528e-10
2.416327677e-10
2.845890267e-10
2.092354758e-10
2.022154125e-10
2.291060277e-10
2.419910427e-10
2.542104343e-10
2.136571447e-10
2.778264235e-10
2.769973497e-10
2.700684188e-10
2.701039085e-10
2.387963531e-10
2.397529123e-10
2.944062495e-10