/*--------------------------------*- C++ -*----------------------------------*\
| =========                 |                                                 |
| \\      /  F ield         | OpenFOAM: The Open Source CFD Toolbox           |
|  \\    /   O peration     | Version:  v1706                                 |
|   \\  /    A nd           | Web:      www.OpenFOAM.com                      |
|    \\/     M anipulation  |                                                 |
\*---------------------------------------------------------------------------*/
FoamFile
{
    version     2.0;
    format      ascii;
    class       volScalarField;
    location    "3.989";
    object      rhoN_mixture;
}
// * * * * * * * * * * * * * * * * * * * * * * * * * * * * * * * * * * * * * //

dimensions      [0 -3 0 0 0 0 0];


internalField   nonuniform List<scalar> 
50792
(
3.052342857e+14
5.67310445e+14
1.114605527e+15
7.693405152e+14
9.419730211e+14
1.379809087e+15
1.589344918e+15
1.457368618e+15
1.727576019e+15
1.626248244e+15
2.00278726e+15
1.776988946e+15
2.389333958e+15
2.089103513e+15
2.258608618e+15
2.852189227e+15
2.307396066e+15
2.390584918e+15
2.522561218e+15
2.478152131e+15
3.029200094e+15
3.036705855e+15
2.765872974e+15
2.993547728e+15
3.326928618e+15
2.733348009e+15
3.291276253e+15
3.756007963e+15
3.20621096e+15
3.320048337e+15
3.793536768e+15
3.297531054e+15
3.217469602e+15
3.330056019e+15
3.345067541e+15
3.208712881e+15
3.449522717e+15
3.086118782e+15
3.244990726e+15
3.40699007e+15
3.649050867e+15
3.642170585e+15
4.403379859e+14
2.426862763e+14
3.521452927e+14
5.14144637e+14
8.606606089e+14
9.419730211e+14
9.957643091e+14
1.27097555e+15
1.209053021e+15
1.4705037e+15
1.47175466e+15
1.650641967e+15
1.763228384e+15
2.050323747e+15
2.33679363e+15
2.241720656e+15
2.039065105e+15
2.221705293e+15
2.324909508e+15
2.365565714e+15
2.363689274e+15
2.445001686e+15
2.687062482e+15
2.74022829e+15
3.011061171e+15
2.650784637e+15
2.638275035e+15
2.849687307e+15
2.918490117e+15
2.996675129e+15
2.967903044e+15
2.900976674e+15
2.784011897e+15
2.525688618e+15
2.553209742e+15
3.081114941e+15
2.725216768e+15
3.47391644e+15
3.150543232e+15
3.062976019e+15
2.433743044e+15
2.547580422e+15
2.289257143e+14
2.508175176e+14
4.584769087e+14
6.47997377e+14
7.899813583e+14
1.035169555e+15
1.549939672e+15
1.252836628e+15
1.431098454e+15
1.753846183e+15
1.856424918e+15
1.594974239e+15
2.130385199e+15
1.93648637e+15
2.06971363e+15
1.893328244e+15
2.179172646e+15
2.570723185e+15
2.73522445e+15
2.717085527e+15
2.639525995e+15
2.47189733e+15
2.86845171e+15
2.919741077e+15
2.586985667e+15
2.865324309e+15
2.755239813e+15
2.353056112e+15
2.920366557e+15
3.019817892e+15
2.867200749e+15
3.109261546e+15
2.854691148e+15
3.130527869e+15
3.226851803e+15
2.996675129e+15
3.082365902e+15
3.178689836e+15
3.363206464e+15
3.010435691e+15
2.945385761e+15
2.973532365e+15
2.333040749e+14
3.609020141e+14
4.290793443e+14
6.023373302e+14
7.937342389e+14
7.574563934e+14
9.945133489e+14
1.027663794e+15
1.247207307e+15
1.553067073e+15
2.020300703e+15
2.034061265e+15
2.289882623e+15
1.807011991e+15
2.079721311e+15
2.526314098e+15
2.543827541e+15
2.433743044e+15
2.249851897e+15
3.283145012e+15
3.229353724e+15
3.130527869e+15
2.525063138e+15
3.211840281e+15
3.465159719e+15
2.865949789e+15
2.695193724e+15
2.662043279e+15
3.101130304e+15
3.318797377e+15
2.798397939e+15
2.952266042e+15
2.771502295e+15
2.644529836e+15
2.917239157e+15
2.656413958e+15
2.812783981e+15
3.121771148e+15
3.728486838e+15
3.210589321e+15
3.113014426e+15
3.060474098e+15
2.777131616e+14
4.935037939e+14
4.109404215e+14
6.899045433e+14
7.906068384e+14
9.119499766e+14
1.443608056e+15
1.187786698e+15
1.457368618e+15
1.562449274e+15
1.650641967e+15
1.477383981e+15
1.819521593e+15
1.795753349e+15
2.185427447e+15
2.287380703e+15
2.491287213e+15
2.459387728e+15
2.774629696e+15
2.859694988e+15
2.815911382e+15
3.829814614e+15
3.575244215e+15
3.086744262e+15
3.572742295e+15
3.358828103e+15
3.034203934e+15
2.683935082e+15
2.816536862e+15
3.283770492e+15
3.238735925e+15
2.518808337e+15
2.860320468e+15
2.485032412e+15
2.685811522e+15
2.93537808e+15
2.867200749e+15
3.114265386e+15
3.421376112e+15
2.885965152e+15
2.946636721e+15
2.690189883e+15
6.442444965e+14
2.439372365e+14
6.004608899e+14
5.535498829e+14
7.593328337e+14
7.831010773e+14
8.700428103e+14
1.157763653e+15
1.382936487e+15
1.27097555e+15
1.40295185e+15
1.990277658e+15
1.673159251e+15
1.953999813e+15
1.842038876e+15
2.017798782e+15
2.062833349e+15
2.182300047e+15
2.721463888e+15
2.887216112e+15
2.951640562e+15
3.498310164e+15
3.749753162e+15
3.60651822e+15
2.701448525e+15
2.862196909e+15
2.984165527e+15
3.417623232e+15
3.518325527e+15
2.595116909e+15
3.233732084e+15
2.568221265e+15
3.049215457e+15
2.808405621e+15
2.753363372e+15
2.980412646e+15
2.551333302e+15
2.854691148e+15
2.655162998e+15
2.970404965e+15
2.924119438e+15
2.480028571e+15
4.503456674e+14
2.157906323e+14
3.953034192e+14
5.047624356e+14
6.129704918e+14
7.837265574e+14
1.331021639e+15
1.331647119e+15
1.286612553e+15
1.313508197e+15
1.495522904e+15
1.624997283e+15
1.928355129e+15
1.709437096e+15
1.642510726e+15
1.731954379e+15
2.354307073e+15
2.242971616e+15
2.460013208e+15
2.993547728e+15
2.963524684e+15
3.47266548e+15
3.383847307e+15
2.93600356e+15
3.489553443e+15
3.477043841e+15
3.00230445e+15
3.164929274e+15
2.66829808e+15
2.863447869e+15
3.359453583e+15
3.165554754e+15
2.930374239e+15
2.767749415e+15
3.024196253e+15
2.653912037e+15
2.794019578e+15
3.310040656e+15
3.171809555e+15
3.588379297e+15
3.368835785e+15
2.643278876e+15
3.984308197e+14
2.47064637e+14
3.609020141e+14
5.153955972e+14
6.773949415e+14
8.606606089e+14
1.170273255e+15
1.215933302e+15
1.275979391e+15
1.623746323e+15
1.566827635e+15
1.570580515e+15
1.761351944e+15
2.029682904e+15
2.132887119e+15
2.596993349e+15
2.979161686e+15
2.732097049e+15
2.588236628e+15
2.726467728e+15
2.408723841e+15
2.830922904e+15
2.920992037e+15
2.658290398e+15
3.061725059e+15
3.371337705e+15
3.388225667e+15
2.999177049e+15
3.036080375e+15
3.208712881e+15
3.443893396e+15
3.111763466e+15
3.011686651e+15
3.00793377e+15
3.042960656e+15
2.789015738e+15
3.428256393e+15
3.627159063e+15
3.397607869e+15
2.934127119e+15
2.980412646e+15
2.951640562e+15
4.972566745e+14
3.790409368e+14
6.648853396e+14
7.461977518e+14
1.013903232e+15
1.117107447e+15
1.128991569e+15
1.502403185e+15
1.581213677e+15
1.650016487e+15
1.680665012e+15
1.900834005e+15
1.778239906e+15
2.114122717e+15
2.1335126e+15
2.346175831e+15
2.379951756e+15
2.159157283e+15
2.447503607e+15
2.690815363e+15
2.374947916e+15
3.100504824e+15
2.266739859e+15
2.411851241e+15
2.825919063e+15
3.13865911e+15
2.637024075e+15
2.889092553e+15
2.713332646e+15
3.201207119e+15
3.47141452e+15
3.211840281e+15
3.371963185e+15
2.94038192e+15
3.278766651e+15
2.833424824e+15
3.717853677e+15
3.946153911e+15
3.308164215e+15
3.553977892e+15
3.230604684e+15
2.60324815e+15
6.486228571e+14
2.232963934e+14
5.016350351e+14
4.935037939e+14
1.073949321e+15
1.139624731e+15
1.153385293e+15
1.366674005e+15
1.60248e+15
1.744463981e+15
1.771985105e+15
2.190431288e+15
1.909590726e+15
1.982146417e+15
2.079721311e+15
2.220454333e+15
2.033435785e+15
2.329287869e+15
2.914111756e+15
2.845934426e+15
3.315669977e+15
2.661417799e+15
2.975408806e+15
2.648908197e+15
2.757116253e+15
2.531943419e+15
2.966026604e+15
3.040458735e+15
3.211840281e+15
3.645923466e+15
2.882212272e+15
3.084242342e+15
2.46876993e+15
3.188697518e+15
2.678305761e+15
2.980412646e+15
3.33881274e+15
3.449522717e+15
3.055470258e+15
3.454526557e+15
3.301283934e+15
2.772127775e+15
6.392406557e+14
2.426862763e+14
4.703610304e+14
6.436190164e+14
1.091462763e+15
1.26722267e+15
1.077076721e+15
1.456117658e+15
1.899583044e+15
1.783869227e+15
1.922100328e+15
1.713815457e+15
1.887698923e+15
1.775112506e+15
2.287380703e+15
2.239218735e+15
2.308021546e+15
2.277373021e+15
2.231087494e+15
2.520059297e+15
2.440623326e+15
3.228102763e+15
3.012937611e+15
2.744606651e+15
2.559464543e+15
2.631394754e+15
2.689564403e+15
3.026698173e+15
2.910358876e+15
3.062350539e+15
3.00355541e+15
2.684560562e+15
3.196828759e+15
2.988543888e+15
3.241863326e+15
2.848436347e+15
3.314419016e+15
3.352573302e+15
3.553977892e+15
3.091748103e+15
3.215593162e+15
2.764622014e+15
4.878744731e+14
4.096894614e+14
5.097662763e+14
6.698891803e+14
8.456490867e+14
1.292241874e+15
1.051432037e+15
1.501152225e+15
1.816394192e+15
1.697552974e+15
1.887698923e+15
2.503171335e+15
2.27049274e+15
2.293635504e+15
2.110369836e+15
2.13726548e+15
2.366191194e+15
2.521935738e+15
3.121771148e+15
3.066728899e+15
2.851563747e+15
2.912860796e+15
2.792768618e+15
2.66892356e+15
2.557588103e+15
2.767749415e+15
2.941632881e+15
2.852189227e+15
3.211840281e+15
2.865949789e+15
3.295654614e+15
3.017941452e+15
3.160550913e+15
2.47377377e+15
2.366816674e+15
2.556962623e+15
2.637649555e+15
2.951640562e+15
2.895972834e+15
2.984165527e+15
2.779008056e+15
2.382453677e+15
7.912323185e+14
3.308789696e+14
4.146933021e+14
5.923296487e+14
8.48151007e+14
1.194666979e+15
1.434851335e+15
1.328519719e+15
1.60185452e+15
1.703807775e+15
1.497399344e+15
2.258608618e+15
2.128508759e+15
2.06846267e+15
1.87081096e+15
1.860177799e+15
2.258608618e+15
2.279249461e+15
2.8059037e+15
3.280017611e+15
2.745232131e+15
2.551958782e+15
3.221222482e+15
2.815911382e+15
2.9410074e+15
2.710205246e+15
2.920992037e+15
3.3400637e+15
3.707220515e+15
3.518325527e+15
3.079238501e+15
3.132404309e+15
3.565862014e+15
3.500812084e+15
3.391353068e+15
3.463283279e+15
3.40198623e+15
2.860945948e+15
2.770876815e+15
2.885965152e+15
2.775880656e+15
2.309272506e+15
9.232086183e+14
6.598814988e+14
5.704378454e+14
7.067925059e+14
9.876330679e+14
1.112729087e+15
1.123362248e+15
1.743213021e+15
1.629375644e+15
1.564951194e+15
1.558070913e+15
1.912092646e+15
1.431723934e+15
2.151651522e+15
2.058454988e+15
2.057829508e+15
2.032810304e+15
2.33741911e+15
2.384955597e+15
2.185427447e+15
2.306770585e+15
2.690815363e+15
3.022945293e+15
3.416997752e+15
3.300658454e+15
3.293778173e+15
3.4751674e+15
3.655931148e+15
3.655931148e+15
2.848436347e+15
3.017315972e+15
3.40448815e+15
3.281268571e+15
2.852814707e+15
2.922242998e+15
3.87297274e+15
3.591506698e+15
3.148666792e+15
3.291276253e+15
3.039833255e+15
3.086744262e+15
2.53694726e+15
1.33602548e+15
2.745857611e+14
5.266542389e+14
7.036651054e+14
8.049928806e+14
1.006397471e+15
1.368550445e+15
1.53305171e+15
1.514912787e+15
1.748842342e+15
1.645012646e+15
1.703807775e+15
1.593723279e+15
1.902084965e+15
2.114748197e+15
2.131636159e+15
1.877691241e+15
2.348052272e+15
2.667047119e+15
2.516931897e+15
2.123504918e+15
2.518808337e+15
2.837803185e+15
3.209963841e+15
2.960397283e+15
3.192450398e+15
2.47314829e+15
2.825293583e+15
3.159925433e+15
3.665938829e+15
3.381970867e+15
3.161801874e+15
3.198705199e+15
3.046088056e+15
3.615900422e+15
3.101755785e+15
3.27063541e+15
3.371337705e+15
3.2080874e+15
2.614506792e+15
2.830922904e+15
2.309897986e+15
6.717656206e+14
2.095358314e+14
3.3400637e+14
4.928783138e+14
8.619115691e+14
9.375946604e+14
9.782508665e+14
1.3385274e+15
1.426720094e+15
1.701305855e+15
1.725699578e+15
1.622495363e+15
1.73570726e+15
2.148524122e+15
2.011543981e+15
2.374322436e+15
2.830297424e+15
2.67017452e+15
2.556962623e+15
3.201207119e+15
2.850938267e+15
3.07048178e+15
2.53444534e+15
2.917239157e+15
2.80402726e+15
2.828420984e+15
3.510194286e+15
3.467036159e+15
2.949138642e+15
3.27063541e+15
2.792768618e+15
2.557588103e+15
2.881586792e+15
2.595116909e+15
3.193701358e+15
2.541325621e+15
3.057346698e+15
2.516931897e+15
2.622012553e+15
2.786513817e+15
2.779633536e+15
2.754614333e+15
4.697355504e+14
2.445627166e+14
3.590255738e+14
5.01009555e+14
7.705914754e+14
8.300120843e+14
1.116481967e+15
1.4705037e+15
1.452990258e+15
1.833907635e+15
1.324766838e+15
1.617491522e+15
2.129134239e+15
1.843915316e+15
2.238593255e+15
2.107867916e+15
2.012794941e+15
2.383079157e+15
3.246867166e+15
2.639525995e+15
2.259859578e+15
2.387457518e+15
2.530066979e+15
2.941632881e+15
2.976659766e+15
2.518808337e+15
3.368835785e+15
2.981038126e+15
3.355700703e+15
3.082991382e+15
2.991045808e+15
3.017315972e+15
3.333808899e+15
3.558356253e+15
3.879227541e+15
3.724108478e+15
3.796664169e+15
3.501437564e+15
3.478920281e+15
3.87484918e+15
3.179315316e+15
2.495665574e+15
9.638648244e+14
2.864698829e+14
3.821683372e+14
4.759903513e+14
6.6738726e+14
7.849775176e+14
1.027038314e+15
1.105848806e+15
1.595599719e+15
1.6056074e+15
1.585592037e+15
1.659398689e+15
1.73383082e+15
1.783243747e+15
1.974015176e+15
2.428113724e+15
2.234214895e+15
2.510677096e+15
3.133655269e+15
3.077362061e+15
2.516306417e+15
2.613255831e+15
2.455009368e+15
3.06860534e+15
2.656413958e+15
2.87220459e+15
2.663294239e+15
2.185427447e+15
2.415604122e+15
2.333040749e+15
2.772127775e+15
2.789641218e+15
2.575101546e+15
2.714583607e+15
3.084867822e+15
3.594634098e+15
3.827312693e+15
2.93913096e+15
3.185570117e+15
3.302534895e+15
2.954142482e+15
2.379951756e+15
6.110940515e+14
2.226709133e+14
4.591023888e+14
5.566772834e+14
7.092944262e+14
1.014528712e+15
1.428596534e+15
1.180906417e+15
1.433600375e+15
1.653143888e+15
2.027180984e+15
1.843289836e+15
2.156029883e+15
2.328036909e+15
2.560715504e+15
2.40246904e+15
2.523186698e+15
2.710830726e+15
2.762120094e+15
2.835301265e+15
2.688313443e+15
2.723340328e+15
2.860320468e+15
3.692834473e+15
3.016690492e+15
2.892845433e+15
3.622780703e+15
3.281268571e+15
3.291276253e+15
3.501437564e+15
3.328179578e+15
3.654680187e+15
2.949764122e+15
2.912860796e+15
3.113014426e+15
3.153670632e+15
3.476418361e+15
3.052342857e+15
2.702074005e+15
2.80527822e+15
2.844057986e+15
2.414353162e+15
8.869307728e+14
2.40184356e+14
4.196971429e+14
7.261823888e+14
9.913859485e+14
1.064567119e+15
1.313508197e+15
1.264095269e+15
1.382311007e+15
2.055327588e+15
2.231712974e+15
1.833282155e+15
2.052200187e+15
2.284878782e+15
2.228585574e+15
2.640776956e+15
2.612004871e+15
2.893470913e+15
2.179798126e+15
3.074860141e+15
2.886590632e+15
2.877833911e+15
3.099879344e+15
3.74162192e+15
3.156798033e+15
3.133655269e+15
3.378843466e+15
3.305036815e+15
2.742730211e+15
2.862822389e+15
2.823417143e+15
2.517557377e+15
2.749610492e+15
3.085493302e+15
2.645780796e+15
2.379951756e+15
2.807780141e+15
2.852814707e+15
2.995424169e+15
2.743981171e+15
2.684560562e+15
2.578854426e+15
1.433600375e+15
2.964775644e+14
6.129704918e+14
7.605837939e+14
1.165894895e+15
1.115856487e+15
1.299122155e+15
1.554943513e+15
1.851421077e+15
1.926478689e+15
1.921474848e+15
2.532568899e+15
2.173543326e+15
3.388225667e+15
2.478777611e+15
2.759618173e+15
3.595259578e+15
3.26875897e+15
3.104883185e+15
3.344442061e+15
3.789158407e+15
3.241863326e+15
3.00355541e+15
2.945385761e+15
3.20746192e+15
3.0729837e+15
3.40198623e+15
3.166180234e+15
3.356951663e+15
2.807780141e+15
2.984165527e+15
2.8059037e+15
2.915988197e+15
2.640776956e+15
2.568846745e+15
2.906605995e+15
2.53819822e+15
2.909107916e+15
2.426862763e+15
2.166037564e+15
2.546329461e+15
2.33804459e+15
8.819269321e+14
2.089103513e+14
6.555031382e+14
5.985844496e+14
8.306375644e+14
9.807527869e+14
1.171524215e+15
1.170898735e+15
1.262218829e+15
1.491770023e+15
1.706309696e+15
1.965883934e+15
2.225458173e+15
2.343673911e+15
3.075485621e+15
2.703324965e+15
2.732722529e+15
3.146164871e+15
2.638900515e+15
2.898474754e+15
2.967277564e+15
2.917239157e+15
3.462032319e+15
3.664687869e+15
2.819664262e+15
3.011686651e+15
3.161176393e+15
2.958520843e+15
2.710205246e+15
2.949138642e+15
3.223098923e+15
3.020443372e+15
3.217469602e+15
3.54084281e+15
2.695193724e+15
3.243114286e+15
2.73710089e+15
2.908482436e+15
2.254230258e+15
2.586985667e+15
2.383704637e+15
1.980269977e+15
3.027323653e+14
2.007791101e+14
4.171952225e+14
4.453418267e+14
7.724679157e+14
8.531548478e+14
9.075716159e+14
1.247832787e+15
1.280357752e+15
1.548063232e+15
1.66815541e+15
1.514912787e+15
1.700054895e+15
2.187303888e+15
1.910216206e+15
2.388708478e+15
2.418106042e+15
2.718336487e+15
2.614506792e+15
2.265488899e+15
2.518808337e+15
2.828420984e+15
3.255623888e+15
2.970404965e+15
3.73661808e+15
2.830922904e+15
2.992922248e+15
3.084242342e+15
2.784637377e+15
3.103006745e+15
3.484549602e+15
4.200724309e+15
3.928014988e+15
3.375716066e+15
3.778525246e+15
3.151794192e+15
3.715351756e+15
3.630911944e+15
3.306913255e+15
2.884714192e+15
2.687062482e+15
2.482530492e+15
9.006913349e+14
5.191484778e+14
4.566004684e+14
7.005377049e+14
8.919346136e+14
8.500274473e+14
1.050806557e+15
1.147755972e+15
1.438604215e+15
1.680665012e+15
2.027806464e+15
1.93711185e+15
2.170415925e+15
2.171041405e+15
2.26986726e+15
2.124130398e+15
2.483781452e+15
2.972281405e+15
2.759618173e+15
2.244222576e+15
2.279249461e+15
2.46876993e+15
2.741479251e+15
2.496291054e+15
3.328179578e+15
3.061725059e+15
3.109887026e+15
2.430615644e+15
2.414978642e+15
2.341797471e+15
2.596993349e+15
3.131153349e+15
3.343191101e+15
3.161801874e+15
2.777131616e+15
2.712081686e+15
3.025447213e+15
3.594634098e+15
3.086744262e+15
3.116141827e+15
2.842181546e+15
2.375573396e+15
1.107725246e+15
2.489410773e+14
3.915505386e+14
5.3416e+14
6.436190164e+14
7.762207963e+14
1.047053677e+15
1.184659297e+15
1.441106136e+15
1.730703419e+15
1.910841686e+15
1.999659859e+15
2.251102857e+15
2.20106445e+15
2.553835222e+15
2.718961967e+15
2.594491429e+15
2.799648899e+15
2.431241124e+15
2.985416487e+15
2.324909508e+15
2.610128431e+15
2.623263513e+15
2.73835185e+15
2.910358876e+15
3.20245808e+15
2.93725452e+15
2.839054145e+15
2.842807026e+15
2.657664918e+15
2.924119438e+15
3.217469602e+15
3.108010585e+15
3.33943822e+15
2.997300609e+15
2.947887681e+15
2.617008712e+15
2.910984356e+15
2.511928056e+15
2.481279532e+15
2.665170679e+15
2.353056112e+15
1.122111288e+15
2.345550351e+14
4.215735831e+14
5.01009555e+14
6.94282904e+14
9.576100234e+14
1.33790192e+15
1.235948665e+15
1.311631756e+15
1.509908946e+15
1.407330211e+15
1.656896768e+15
2.20544281e+15
2.584483747e+15
2.727093208e+15
2.702074005e+15
2.708954286e+15
2.501294895e+15
2.191682248e+15
2.433743044e+15
2.244222576e+15
2.082223232e+15
2.838428665e+15
2.720838407e+15
2.67205096e+15
2.968528525e+15
3.521452927e+15
3.675946511e+15
3.290025293e+15
3.27251185e+15
3.349445902e+15
2.693942763e+15
3.318797377e+15
3.084242342e+15
3.466410679e+15
3.164303794e+15
2.433117564e+15
2.743981171e+15
3.015439532e+15
2.976034286e+15
2.618259672e+15
3.157423513e+15
3.821683372e+14
2.264237939e+14
6.561286183e+14
8.694173302e+14
7.41193911e+14
9.782508665e+14
1.040173396e+15
1.166520375e+15
1.327268759e+15
1.441106136e+15
1.755722623e+15
1.979019016e+15
2.023428103e+15
2.47377377e+15
2.423109883e+15
2.40246904e+15
3.049840937e+15
3.022319813e+15
2.690815363e+15
3.086744262e+15
3.001053489e+15
2.381202717e+15
2.493789133e+15
2.580105386e+15
3.024821733e+15
2.666421639e+15
3.152419672e+15
3.091748103e+15
3.53959185e+15
3.149917752e+15
3.514572646e+15
3.398858829e+15
3.281268571e+15
3.40198623e+15
3.123022108e+15
3.091748103e+15
2.888467073e+15
2.855316628e+15
2.545078501e+15
2.628892834e+15
2.357434473e+15
2.782135457e+15
6.498738173e+14
3.415121311e+14
4.146933021e+14
9.100735363e+14
9.782508665e+14
1.323515878e+15
1.183408337e+15
1.194666979e+15
1.387314848e+15
1.494897424e+15
1.835784075e+15
2.055327588e+15
1.846417237e+15
2.465017049e+15
2.381828197e+15
2.434994005e+15
2.658915878e+15
2.657039438e+15
2.610753911e+15
2.73522445e+15
3.238110445e+15
2.763996534e+15
2.770251335e+15
2.53757274e+15
2.93537808e+15
2.852189227e+15
3.527707728e+15
3.567112974e+15
3.716602717e+15
3.619653302e+15
3.352573302e+15
3.47016356e+15
3.307538735e+15
3.690332553e+15
3.677197471e+15
3.370712225e+15
3.553977892e+15
3.077987541e+15
3.373839625e+15
3.023570773e+15
2.74022829e+15
2.597618829e+15
9.88258548e+14
4.0093274e+14
9.075716159e+14
9.313398595e+14
7.524525527e+14
8.400197658e+14
1.191539578e+15
1.282859672e+15
1.549314192e+15
1.584341077e+15
1.720695738e+15
1.999034379e+15
2.260485059e+15
2.13538904e+15
2.285504262e+15
2.193558689e+15
2.393086838e+15
2.982914567e+15
2.508175176e+15
2.93537808e+15
2.830297424e+15
2.456260328e+15
2.565719344e+15
3.106759625e+15
3.20370904e+15
2.994798689e+15
3.373839625e+15
2.976659766e+15
3.520201967e+15
3.517700047e+15
2.927872319e+15
3.055470258e+15
3.176813396e+15
2.73459897e+15
2.776506136e+15
3.485175082e+15
3.168682155e+15
3.171184075e+15
3.314419016e+15
3.437013115e+15
3.290025293e+15
3.148041311e+15
5.629320843e+14
4.6723363e+14
7.324371897e+14
8.731702108e+14
8.54405808e+14
1.018281593e+15
1.234072225e+15
1.53492815e+15
1.645012646e+15
1.441106136e+15
1.699429415e+15
1.898957564e+15
2.340546511e+15
2.382453677e+15
2.632020234e+15
2.332415269e+15
2.700823044e+15
2.6739274e+15
3.265006089e+15
2.618885152e+15
2.835301265e+15
2.80152534e+15
2.811533021e+15
4.046856206e+15
3.27126089e+15
3.296905574e+15
2.881586792e+15
2.80527822e+15
2.431866604e+15
2.330538829e+15
2.595742389e+15
2.410600281e+15
2.27111822e+15
2.769000375e+15
2.530692459e+15
2.73522445e+15
2.914737237e+15
3.162427354e+15
2.955393443e+15
3.013563091e+15
2.294260984e+15
2.341171991e+15
5.566772834e+14
3.946779391e+14
4.415889461e+14
4.966311944e+14
6.623834192e+14
9.250850585e+14
1.391693208e+15
1.195917939e+15
1.705058735e+15
1.673159251e+15
1.488017143e+15
1.700054895e+15
1.763853864e+15
2.324284028e+15
2.213574052e+15
2.154778923e+15
2.523812178e+15
1.955250773e+15
2.489410773e+15
2.346175831e+15
3.061725059e+15
2.639525995e+15
2.842807026e+15
2.47064637e+15
3.065477939e+15
2.587611148e+15
2.856567588e+15
2.594491429e+15
2.951015082e+15
2.611379391e+15
3.121771148e+15
2.859069508e+15
2.756490773e+15
2.755865293e+15
2.836552225e+15
2.895972834e+15
2.73522445e+15
2.889092553e+15
3.653429227e+15
3.011686651e+15
3.232481124e+15
2.712707166e+15
8.475255269e+14
5.54175363e+14
3.971798595e+14
5.060133958e+14
6.61132459e+14
9.913859485e+14
1.190914098e+15
1.343531241e+15
1.292241874e+15
1.312882717e+15
1.660649649e+15
1.657522248e+15
1.648765527e+15
1.634379485e+15
2.181049087e+15
2.460013208e+15
2.364314754e+15
2.390584918e+15
2.431241124e+15
2.895347354e+15
3.533337049e+15
3.086744262e+15
3.127400468e+15
3.234983044e+15
3.301909415e+15
2.965401124e+15
2.709579766e+15
2.963524684e+15
3.119894707e+15
2.985416487e+15
3.209338361e+15
3.457028478e+15
3.00292993e+15
3.098002904e+15
2.613255831e+15
2.942258361e+15
3.133029789e+15
3.158674473e+15
2.657039438e+15
3.051091897e+15
2.568221265e+15
2.568221265e+15
4.87248993e+14
4.278283841e+14
5.798200468e+14
5.867003279e+14
7.899813583e+14
8.443981265e+14
9.494787822e+14
1.140250211e+15
1.756348103e+15
2.062207869e+15
1.898332084e+15
2.093481874e+15
2.147898642e+15
2.225458173e+15
2.918490117e+15
2.394337799e+15
2.685186042e+15
2.987918407e+15
2.513804496e+15
3.037956815e+15
3.385098267e+15
3.467661639e+15
3.652803747e+15
3.877351101e+15
3.298782014e+15
3.233732084e+15
2.616383232e+15
2.592614988e+15
2.832799344e+15
2.909107916e+15
3.149917752e+15
3.323175738e+15
3.219971522e+15
3.446395316e+15
2.860945948e+15
2.975408806e+15
2.964775644e+15
3.131778829e+15
3.159299953e+15
3.258125808e+15
3.086744262e+15
2.679556721e+15
3.283770492e+14
2.301766745e+14
4.47218267e+14
5.485460422e+14
6.667617799e+14
8.375178454e+14
1.275353911e+15
1.421716253e+15
1.79950623e+15
1.629375644e+15
1.993405059e+15
1.93961377e+15
1.923351288e+15
2.244222576e+15
2.583858267e+15
2.480654052e+15
2.623263513e+15
3.049215457e+15
2.439372365e+15
2.784011897e+15
2.906605995e+15
2.772753255e+15
3.148666792e+15
2.86907719e+15
2.674552881e+15
3.123022108e+15
3.277515691e+15
2.93788e+15
3.209338361e+15
2.608877471e+15
2.637649555e+15
2.782760937e+15
3.183068197e+15
2.80340178e+15
3.196203279e+15
2.919741077e+15
2.73772637e+15
3.362580984e+15
2.999802529e+15
3.07423466e+15
2.887841593e+15
2.692691803e+15
3.290025293e+14
2.376824356e+14
5.823219672e+14
7.749698361e+14
1.235323185e+15
1.055184918e+15
1.298496674e+15
1.543684871e+15
1.371677845e+15
1.842664356e+15
1.859552319e+15
1.492395504e+15
1.685668852e+15
1.789498548e+15
2.064084309e+15
2.07096459e+15
1.942115691e+15
2.47064637e+15
2.110995316e+15
2.063458829e+15
2.194809649e+15
2.842181546e+15
2.455009368e+15
3.051091897e+15
2.845308946e+15
2.612630351e+15
2.714583607e+15
2.745857611e+15
2.46876993e+15
2.858444028e+15
2.350554192e+15
2.721463888e+15
2.834675785e+15
3.021068852e+15
2.696444684e+15
2.976034286e+15
3.153045152e+15
3.40824103e+15
3.346943981e+15
2.639525995e+15
2.625139953e+15
2.834675785e+15
5.74190726e+14
2.257983138e+14
4.065620609e+14
5.766926464e+14
7.249314286e+14
8.54405808e+14
1.152759813e+15
1.439229696e+15
1.618117002e+15
1.883946042e+15
2.119126557e+15
2.197311569e+15
2.207944731e+15
2.419357002e+15
2.095983794e+15
2.211697611e+15
2.129134239e+15
2.755239813e+15
2.790892178e+15
2.924119438e+15
2.550707822e+15
2.830922904e+15
2.814034941e+15
2.914111756e+15
2.759618173e+15
2.750235972e+15
2.944134801e+15
2.531317939e+15
3.276264731e+15
2.728344169e+15
2.773378735e+15
2.720838407e+15
2.495665574e+15
2.900351194e+15
3.07235822e+15
3.021068852e+15
3.169307635e+15
3.218095082e+15
3.481422201e+15
3.565862014e+15
3.383221827e+15
2.976034286e+15
7.017886651e+14
2.395588759e+14
4.297048244e+14
6.179743326e+14
7.518270726e+14
9.219576581e+14
1.292867354e+15
1.432349415e+15
1.499275785e+15
1.990277658e+15
2.06971363e+15
2.328662389e+15
2.505047775e+15
2.252353817e+15
2.331164309e+15
2.421858923e+15
2.33929555e+15
2.792768618e+15
2.902853115e+15
2.560715504e+15
2.438746885e+15
2.731471569e+15
2.809656581e+15
2.968528525e+15
3.096126464e+15
2.998551569e+15
3.00793377e+15
2.985416487e+15
3.047339016e+15
3.642796066e+15
2.865324309e+15
3.201207119e+15
3.000428009e+15
2.902853115e+15
3.54084281e+15
3.705969555e+15
3.062976019e+15
3.123647588e+15
2.984165527e+15
3.257500328e+15
3.014188571e+15
2.573850585e+15
9.113244965e+14
2.933501639e+14
4.359596253e+14
7.712169555e+14
8.306375644e+14
9.425985012e+14
1.007648431e+15
1.279732272e+15
1.491144543e+15
1.4673763e+15
1.790124028e+15
1.638757845e+15
1.571205995e+15
2.010918501e+15
1.817019672e+15
2.424360843e+15
2.27111822e+15
2.052825667e+15
2.361812834e+15
2.399967119e+15
2.146022201e+15
2.533819859e+15
2.789015738e+15
2.991045808e+15
2.585109227e+15
2.751486932e+15
2.958520843e+15
2.756490773e+15
2.6708e+15
3.400735269e+15
2.911609836e+15
3.280643091e+15
3.214967681e+15
3.226851803e+15
3.101130304e+15
3.772270445e+15
2.962899204e+15
2.892845433e+15
2.839679625e+15
3.213091241e+15
2.840305105e+15
2.713332646e+15
5.910786885e+14
2.814660422e+14
4.628552693e+14
7.518270726e+14
1.005771991e+15
1.120860328e+15
1.339152881e+15
1.391067728e+15
1.596225199e+15
1.73508178e+15
1.80576103e+15
2.060956909e+15
1.773236066e+15
1.974015176e+15
2.074717471e+15
2.73522445e+15
2.172292365e+15
2.375573396e+15
2.711456206e+15
2.501920375e+15
3.410117471e+15
2.782135457e+15
2.387457518e+15
2.60074623e+15
3.13490623e+15
2.785262857e+15
3.041709696e+15
2.729595129e+15
2.359936393e+15
2.790892178e+15
3.345067541e+15
3.484549602e+15
3.363831944e+15
3.312542576e+15
2.930999719e+15
2.800274379e+15
2.521310258e+15
2.496916534e+15
2.709579766e+15
2.772127775e+15
2.779008056e+15
3.042335176e+15
9.669922248e+14
5.604301639e+14
6.498738173e+14
9.457259016e+14
9.388456206e+14
1.005771991e+15
1.557445433e+15
1.252836628e+15
1.460496019e+15
1.381060047e+15
1.642510726e+15
2.263612459e+15
1.998408899e+15
2.057829508e+15
2.354932553e+15
2.719587447e+15
2.289257143e+15
2.328036909e+15
2.777757096e+15
2.80715466e+15
2.60637555e+15
2.164161124e+15
2.151651522e+15
2.46814445e+15
2.688313443e+15
2.792768618e+15
2.623263513e+15
2.328036909e+15
2.282376862e+15
2.413727681e+15
2.86907719e+15
2.924744918e+15
3.485175082e+15
3.097377424e+15
2.976034286e+15
2.924744918e+15
2.40121808e+15
2.489410773e+15
2.495040094e+15
2.529441499e+15
2.326785948e+15
2.659541358e+15
7.493251522e+14
2.833424824e+14
5.078898361e+14
6.698891803e+14
8.362668852e+14
1.322890398e+15
1.175902576e+15
1.072072881e+15
1.206551101e+15
1.329145199e+15
1.643136206e+15
1.717568337e+15
2.065335269e+15
1.741962061e+15
2.237967775e+15
2.369318595e+15
2.010293021e+15
2.647031756e+15
2.618885152e+15
3.154921593e+15
2.386206557e+15
2.276747541e+15
2.371820515e+15
2.615757752e+15
2.753363372e+15
2.816536862e+15
3.422001593e+15
3.07235822e+15
2.566344824e+15
2.652035597e+15
2.812158501e+15
3.144913911e+15
2.760869133e+15
2.785888337e+15
2.789641218e+15
3.158674473e+15
2.914737237e+15
2.502545855e+15
2.143520281e+15
2.696444684e+15
2.373071475e+15
2.47189733e+15
2.977285246e+14
3.433885714e+14
7.630857143e+14
9.945133489e+14
1.155887213e+15
1.3385274e+15
1.241577986e+15
1.584341077e+15
1.384187447e+15
1.960254614e+15
1.818270632e+15
1.987150258e+15
2.13538904e+15
2.26924178e+15
2.218577892e+15
2.184801967e+15
2.211697611e+15
2.541951101e+15
2.506298735e+15
2.764622014e+15
2.919741077e+15
2.486908852e+15
2.853440187e+15
2.957895363e+15
3.054219297e+15
3.445769836e+15
3.249994567e+15
3.173685995e+15
2.999802529e+15
3.109261546e+15
3.06923082e+15
3.281268571e+15
3.303160375e+15
3.316920937e+15
3.248743607e+15
3.508317845e+15
3.527082248e+15
3.730988759e+15
3.385098267e+15
3.353198782e+15
3.304411335e+15
3.367584824e+15
1.964007494e+15
1.879567681e+15
1.571831475e+15
2.227334614e+15
2.561966464e+15
2.223581733e+15
2.501294895e+15
2.440623326e+15
3.348820422e+15
3.114265386e+15
2.997300609e+15
4.046230726e+15
3.782278126e+15
3.766641124e+15
3.617776862e+15
3.60526726e+15
3.628410023e+15
3.793536768e+15
3.575244215e+15
3.463908759e+15
4.814320281e+15
4.489696112e+15
4.095018173e+15
4.185087307e+15
4.060616768e+15
4.445287026e+15
5.269669789e+15
5.620564122e+15
4.726753068e+15
3.904872225e+15
4.319565527e+15
4.484692272e+15
4.511587916e+15
4.300175644e+15
4.240755035e+15
4.624174333e+15
4.455294707e+15
5.350356721e+15
5.441676815e+15
5.367244684e+15
6.027751663e+15
4.462800468e+15
2.196686089e+15
2.441248806e+15
2.490036253e+15
2.582607307e+15
2.504422295e+15
3.953034192e+15
3.616525902e+15
5.640579485e+15
4.145056581e+15
4.948798501e+15
3.884231382e+15
5.068265199e+15
5.927674848e+15
4.391495738e+15
4.252013677e+15
4.776165995e+15
5.030110913e+15
5.34222548e+15
4.439657705e+15
5.766926464e+15
5.786941827e+15
5.621815082e+15
5.662471288e+15
4.964435504e+15
4.990705667e+15
6.080917471e+15
6.023998782e+15