/*--------------------------------*- C++ -*----------------------------------*\
| =========                 |                                                 |
| \\      /  F ield         | OpenFOAM: The Open Source CFD Toolbox           |
|  \\    /   O peration     | Version:  v1706                                 |
|   \\  /    A nd           | Web:      www.OpenFOAM.com                      |
|    \\/     M anipulation  |                                                 |
\*---------------------------------------------------------------------------*/
FoamFile
{
    version     2.0;
    format      ascii;
    class       volScalarField;
    location    "3.989";
    object      rhoN_O2;
}
// * * * * * * * * * * * * * * * * * * * * * * * * * * * * * * * * * * * * * //

dimensions      [0 -3 0 0 0 0 0];


internalField   nonuniform List<scalar> 
50792
(
3.94052459e+13
2.858444028e+14
5.329090398e+14
1.482387822e+14
1.701305855e+14
2.264237939e+14
1.67003185e+14
3.233732084e+14
3.446395316e+14
2.833424824e+14
4.828706323e+14
3.978053396e+14
5.81071007e+14
4.94129274e+14
4.078130211e+14
6.992867447e+14
5.297816393e+14
5.760671663e+14
4.916273536e+14
5.466696019e+14
5.716888056e+14
5.573027635e+14
6.154724122e+14
6.14221452e+14
6.104685714e+14
5.879512881e+14
1.165269415e+15
8.306375644e+14
7.268078689e+14
7.831010773e+14
8.794250117e+14
6.436190164e+14
5.967080094e+14
5.948315691e+14
9.044442155e+14
6.567540984e+14
6.548776581e+14
6.830242623e+14
6.504992974e+14
6.47997377e+14
7.086689461e+14
7.086689461e+14
2.351805152e+14
5.94206089e+13
7.067925059e+13
9.194557377e+13
1.175902576e+14
1.594974239e+14
2.983540047e+14
4.853725527e+14
2.902227635e+14
4.766158314e+14
3.877976581e+14
5.160210773e+14
5.003840749e+14
4.178207026e+14
4.334577049e+14
5.329090398e+14
4.053111007e+14
5.466696019e+14
5.216503981e+14
6.486228571e+14
6.842752225e+14
7.949851991e+14
7.81224637e+14
5.604301639e+14
5.172720375e+14
3.846702576e+14
5.022605152e+14
4.966311944e+14
5.003840749e+14
6.986612646e+14
5.685614052e+14
8.306375644e+14
6.248546136e+14
5.066388759e+14
6.261055738e+14
6.417425761e+14
5.860748478e+14
9.019422951e+14
7.856029977e+14
6.185998126e+14
5.522989227e+14
5.379128806e+14
5.629320843e+12
3.064852459e+13
6.94282904e+13
7.505761124e+13
9.444749415e+13
1.144628571e+14
5.122681967e+14
2.007791101e+14
2.051574707e+14
3.896740984e+14
2.395588759e+14
2.727093208e+14
3.496433724e+14
3.54021733e+14
4.234500234e+14
3.571491335e+14
4.021837002e+14
6.017118501e+14
4.903763934e+14
4.778667916e+14
5.760671663e+14
6.279820141e+14
5.435422014e+14
6.548776581e+14
5.54175363e+14
5.560518033e+14
6.404916159e+14
6.961593443e+14
6.461209368e+14
5.616811241e+14
6.423680562e+14
1.075200281e+15
6.773949415e+14
5.910786885e+14
7.774717564e+14
5.879512881e+14
5.316580796e+14
5.229013583e+14
6.454954567e+14
5.41040281e+14
8.14375082e+14
7.08043466e+14
4.440908665e+13
3.127400468e+13
5.816964871e+13
8.318885246e+13
1.019532553e+14
1.46987822e+14
1.770108665e+14
1.851421077e+14
3.239986885e+14
2.426862763e+14
3.884231382e+14
4.94129274e+14
2.820915222e+14
3.290025293e+14
3.627784543e+14
3.396356909e+14
7.074179859e+14
4.215735831e+14
5.785690867e+14
8.356414052e+14
7.461977518e+14
7.643366745e+14
4.734884309e+14
5.510479625e+14
4.653571897e+14
4.178207026e+14
5.604301639e+14
6.849007026e+14
5.985844496e+14
5.829474473e+14
7.68089555e+14
7.655876347e+14
8.074948009e+14
5.247777986e+14
5.522989227e+14
4.791177518e+14
5.122681967e+14
5.166465574e+14
7.568309133e+14
7.3431363e+14
6.217272131e+14
4.734884309e+14
8.381433255e+13
4.94129274e+13
1.757599063e+14
2.333040749e+14
2.245473536e+14
1.982771897e+14
3.859212178e+14
2.53944918e+14
4.515966276e+14
2.833424824e+14
4.584769087e+14
3.27126089e+14
3.965543794e+14
4.015582201e+14
3.465159719e+14
4.184461827e+14
5.654340047e+14
3.702842155e+14
4.309557845e+14
5.122681967e+14
4.622297892e+14
6.905300234e+14
7.368155504e+14
6.642598595e+14
5.766926464e+14
8.706682904e+14
7.3431363e+14
4.859980328e+14
6.336113349e+14
8.512784075e+14
7.555799532e+14
7.693405152e+14
7.862284778e+14
5.391638407e+14
6.636343794e+14
4.559749883e+14
5.579282436e+14
5.81071007e+14
6.936574239e+14
6.098430913e+14
6.47371897e+14
6.042137705e+14
2.376824356e+13
4.566004684e+13
7.568309133e+13
9.132009368e+13
2.308021546e+14
1.438604215e+14
1.926478689e+14
3.840447775e+14
3.921760187e+14
2.845934426e+14
2.902227635e+14
3.834192974e+14
2.627016393e+14
3.496433724e+14
3.565236534e+14
4.171952225e+14
3.302534895e+14
3.333808899e+14
3.890486183e+14
5.241523185e+14
4.465927869e+14
8.262592037e+14
5.735652459e+14
7.161747073e+14
4.503456674e+14
4.94129274e+14
5.548008431e+14
7.399429508e+14
7.856029977e+14
5.929551288e+14
5.823219672e+14
6.573795785e+14
8.193789227e+14
6.767694614e+14
6.454954567e+14
5.310325995e+14
4.641062295e+14
5.591792037e+14
5.354109602e+14
6.899045433e+14
7.856029977e+14
4.616043091e+14
1.526171429e+14
1.438604215e+13
1.563700234e+13
5.316580796e+13
7.380665105e+13
1.344782201e+14
2.20168993e+14
1.194666979e+14
2.351805152e+14
2.526939578e+14
2.764622014e+14
2.902227635e+14
3.965543794e+14
2.80215082e+14
3.077362061e+14
3.214967681e+14
4.753648712e+14
5.285306792e+14
6.192252927e+14
7.149237471e+14
7.68089555e+14
5.091407963e+14
5.191484778e+14
5.053879157e+14
6.148469321e+14
6.329858548e+14
8.381433255e+14
7.793481967e+14
6.6738726e+14
5.522989227e+14
5.548008431e+14
3.990562998e+14
5.654340047e+14
4.221990632e+14
4.60978829e+14
4.803687119e+14
6.642598595e+14
6.47997377e+14
6.317348946e+14
7.393174707e+14
8.456490867e+14
6.605069789e+14
1.188412178e+13
3.877976581e+13
9.632393443e+13
1.476133021e+14
1.820147073e+14
2.789641218e+14
2.658290398e+14
3.27126089e+14
2.927246838e+14
4.184461827e+14
3.959288993e+14
3.565236534e+14
4.103149415e+14
4.40963466e+14
5.422912412e+14
6.023373302e+14
5.560518033e+14
5.391638407e+14
6.454954567e+14
6.336113349e+14
7.230549883e+14
7.805991569e+14
6.986612646e+14
6.536266979e+14
6.386151756e+14
1.020158033e+15
7.762207963e+14
6.404916159e+14
5.135191569e+14
6.605069789e+14
7.168001874e+14
6.648853396e+14
5.648085246e+14
7.074179859e+14
5.754416862e+14
5.028859953e+14
5.935806089e+14
5.67310445e+14
6.88028103e+14
5.316580796e+14
6.517502576e+14
6.967848244e+14
1.93898829e+13
7.130473068e+13
1.476133021e+14
1.044551756e+14
1.288488993e+14
1.351037002e+14
1.895204684e+14
3.746625761e+14
2.877208431e+14
3.996817799e+14
3.408866511e+14
4.159442623e+14
3.896740984e+14
4.20322623e+14
5.3416e+14
4.490947073e+14
4.666081499e+14
4.728629508e+14
5.47295082e+14
6.34236815e+14
5.147701171e+14
8.61286089e+14
5.923296487e+14
7.443213115e+14
5.629320843e+14
4.822451522e+14
5.366619204e+14
6.060902108e+14
6.705146604e+14
8.981894145e+14
1.576835316e+15
9.719960656e+14
8.587841686e+14
7.168001874e+14
6.899045433e+14
8.769230913e+14
7.374410304e+14
9.457259016e+14
7.305607494e+14
5.372874005e+14
8.525293677e+14
5.216503981e+14
4.503456674e+13
4.253264637e+13
1.463623419e+14
8.88181733e+13
1.457368618e+14
2.295511944e+14
3.171184075e+14
2.426862763e+14
2.464391569e+14
3.458904918e+14
3.527707728e+14
4.221990632e+14
3.690332553e+14
3.47141452e+14
4.666081499e+14
2.889718033e+14
3.596510539e+14
3.014814052e+14
4.109404215e+14
4.459673068e+14
5.629320843e+14
5.754416862e+14
4.146933021e+14
5.992099297e+14
4.484692272e+14
4.497201874e+14
5.441676815e+14
5.354109602e+14
6.855261827e+14
1.093964684e+15
4.372105855e+14
5.185229977e+14
3.565236534e+14
8.275101639e+14
4.659826698e+14
4.703610304e+14
4.428399063e+14
5.685614052e+14
6.298584543e+14
5.791945667e+14
6.930319438e+14
5.053879157e+14
5.441676815e+13
1.438604215e+13
9.382201405e+13
3.127400468e+13
7.193021077e+13
1.157138173e+14
1.645012646e+14
2.514429977e+14
4.828706323e+14
3.208712881e+14
3.677822951e+14
2.808405621e+14
4.866235129e+14
4.065620609e+14
6.817733021e+14
4.397125059e+14
5.616811241e+14
4.40963466e+14
4.372105855e+14
4.247009836e+14
3.984308197e+14
6.348622951e+14
6.34236815e+14
5.54175363e+14
4.040601405e+14
4.734884309e+14
4.841215925e+14
5.560518033e+14
6.61132459e+14
6.642598595e+14
5.310325995e+14
5.260287588e+14
5.466696019e+14
5.366619204e+14
7.130473068e+14
5.003840749e+14
4.221990632e+14
5.766926464e+14
7.049160656e+14
4.74113911e+14
5.14144637e+14
3.846702576e+14
3.752880562e+13
1.507407026e+14
1.125864169e+14
1.169647775e+14
1.60122904e+14
1.820147073e+14
2.53944918e+14
2.695819204e+14
2.989794848e+14
3.40261171e+14
4.228245433e+14
5.804455269e+14
5.335345199e+14
7.643366745e+14
5.310325995e+14
4.221990632e+14
4.797432319e+14
6.135959719e+14
6.636343794e+14
6.74267541e+14
7.224295082e+14
5.804455269e+14
6.029628103e+14
6.917809836e+14
6.27356534e+14
7.705914754e+14
6.855261827e+14
8.856798126e+14
6.448699766e+14
8.056183607e+14
7.580818735e+14
7.555799532e+14
8.118731616e+14
6.917809836e+14
6.367387354e+14
6.748930211e+14
7.593328337e+14
7.593328337e+14
6.661362998e+14
7.624602342e+14
6.617579391e+14
6.054647307e+14
3.102381265e+14
1.300998595e+14
1.007022951e+14
1.357291803e+14
1.676286651e+14
2.257983138e+14
5.422912412e+14
2.645780796e+14
2.933501639e+14
3.965543794e+14
3.246241686e+14
3.221222482e+14
3.734116159e+14
3.615274941e+14
5.01009555e+14
3.928014988e+14
4.584769087e+14
5.391638407e+14
8.131241218e+14
9.08197096e+14
7.749698361e+14
7.94359719e+14
9.244595785e+14
6.761439813e+14
6.623834192e+14
6.448699766e+14
8.462745667e+14
7.762207963e+14
7.074179859e+14
8.331394848e+14
8.931855738e+14
9.106990164e+14
1.117107447e+15
1.050181077e+15
1.015154192e+15
9.857566276e+14
9.400965808e+14
8.068693208e+14
6.448699766e+14
7.755953162e+14
5.716888056e+14
5.985844496e+14
4.766158314e+14
3.421376112e+14
1.369801405e+14
1.813892272e+14
2.101613115e+14
2.251728337e+14
3.928014988e+14
5.203994379e+14
6.029628103e+14
2.476901171e+14
3.684077752e+14
4.447163466e+14
2.80215082e+14
4.0030726e+14
3.702842155e+14
5.754416862e+14
4.084385012e+14
5.260287588e+14
7.455722717e+14
5.87325808e+14
5.060133958e+14
6.0108637e+14
9.75123466e+14
6.755185012e+14
5.066388759e+14
7.912323185e+14
7.799736768e+14
7.199275878e+14
9.669922248e+14
7.974871194e+14
8.387688056e+14
9.75123466e+14
1.050181077e+15
6.417425761e+14
8.318885246e+14
1.023910913e+15
1.06581808e+15
1.131493489e+15
1.073323841e+15
8.575332084e+14
7.086689461e+14
5.028859953e+14
6.154724122e+14
1.019532553e+14
1.613738642e+14
1.663777049e+14
2.0015363e+14
2.576977986e+14
3.521452927e+14
5.61055644e+14
2.695819204e+14
3.039833255e+14
3.20245808e+14
3.046088056e+14
3.052342857e+14
4.60978829e+14
3.590255738e+14
4.021837002e+14
3.590255738e+14
4.428399063e+14
5.316580796e+14
4.553495082e+14
3.846702576e+14
5.729397658e+14
7.205530679e+14
8.856798126e+14
7.218040281e+14
8.54405808e+14
6.323603747e+14
6.667617799e+14
7.161747073e+14
6.386151756e+14
5.854493677e+14
6.967848244e+14
1.102721405e+15
9.582355035e+14
1.103972365e+15
7.186766276e+14
7.449467916e+14
7.555799532e+14
7.662131148e+14
7.837265574e+14
6.329858548e+14
5.178975176e+14
1.044551756e+14
5.441676815e+13
8.131241218e+13
8.819269321e+13
1.344782201e+14
1.989026698e+14
2.020300703e+14
2.351805152e+14
2.752112412e+14
3.47141452e+14
3.483924122e+14
3.790409368e+14
3.446395316e+14
4.953802342e+14
4.94129274e+14
6.41117096e+14
4.184461827e+14
5.94206089e+14
5.385383607e+14
8.512784075e+14
5.917041686e+14
7.699659953e+14
6.648853396e+14
8.919346136e+14
6.060902108e+14
5.591792037e+14
6.642598595e+14
6.6738726e+14
6.336113349e+14
6.81147822e+14
4.653571897e+14
4.822451522e+14
5.910786885e+14
7.236804684e+14
4.966311944e+14
6.029628103e+14
6.905300234e+14
4.816196721e+14
7.21178548e+14
6.717656206e+14
6.536266979e+14
5.867003279e+14
8.318885246e+13
3.252496487e+13
5.504224824e+13
1.032042155e+14
1.551190632e+14
2.101613115e+14
3.077362061e+14
3.27126089e+14
3.953034192e+14
5.766926464e+14
3.859212178e+14
3.934269789e+14
4.165697424e+14
5.128936768e+14
7.818501171e+14
5.904532084e+14
6.504992974e+14
5.979589696e+14
7.824755972e+14
6.373642155e+14
4.922528337e+14
6.135959719e+14
6.060902108e+14
8.056183607e+14
8.231318033e+14
6.354877752e+14
8.469000468e+14
8.206298829e+14
9.038187354e+14
7.149237471e+14
6.748930211e+14
7.3431363e+14
7.924832787e+14
7.762207963e+14
6.035882904e+14
7.768462763e+14
6.605069789e+14
7.061670258e+14
8.187534426e+14
9.619883841e+14
8.031164403e+14
5.585537237e+14
2.051574707e+14
4.378360656e+13
1.044551756e+14
1.551190632e+14
1.745089461e+14
2.708328806e+14
2.039065105e+14
2.383079157e+14
3.821683372e+14
2.933501639e+14
3.577746136e+14
3.94052459e+14
4.322067447e+14
3.865466979e+14
3.465159719e+14
6.292329742e+14
5.128936768e+14
6.761439813e+14
6.160978923e+14
4.766158314e+14
4.234500234e+14
5.510479625e+14
5.404148009e+14
6.173488525e+14
8.037419204e+14
5.960825293e+14
8.150005621e+14
5.103917564e+14
7.562054333e+14
5.285306792e+14
6.229781733e+14
6.429935363e+14
4.334577049e+14
4.440908665e+14
5.479205621e+14
7.405684309e+14
8.450236066e+14
4.40963466e+14
4.54098548e+14
9.576100234e+14
6.304839344e+14
4.659826698e+14
1.13211897e+14
7.443213115e+13
8.381433255e+13
1.46987822e+14
1.275979391e+14
2.195435129e+14
4.028091803e+14
2.458136768e+14
2.514429977e+14
3.308789696e+14
4.47218267e+14
4.616043091e+14
7.349391101e+14
6.705146604e+14
4.628552693e+14
4.985076347e+14
7.130473068e+14
8.531548478e+14
7.499506323e+14
6.160978923e+14
6.498738173e+14
6.154724122e+14
8.168770023e+14
9.732470258e+14
7.649621546e+14
5.091407963e+14
6.867771429e+14
6.454954567e+14
7.074179859e+14
7.724679157e+14
8.393942857e+14
8.487764871e+14
6.236036534e+14
5.535498829e+14
5.616811241e+14
5.691868852e+14
5.985844496e+14
5.347854801e+14
4.709865105e+14
6.361132553e+14
5.616811241e+14
4.403379859e+14
1.188412178e+13
5.003840749e+13
1.019532553e+14
2.308021546e+14
2.220454333e+14
3.40261171e+14
3.884231382e+14
3.265006089e+14
3.609020141e+14
5.716888056e+14
4.528475878e+14
3.959288993e+14
4.347086651e+14
5.01009555e+14
5.041369555e+14
5.710633255e+14
5.379128806e+14
6.261055738e+14
5.87325808e+14
8.450236066e+14
6.060902108e+14
5.304071194e+14
7.430703513e+14
8.312630445e+14
4.935037939e+14
4.021837002e+14
4.478437471e+14
7.274333489e+14
5.554263232e+14
5.685614052e+14
6.867771429e+14
5.035114754e+14
6.423680562e+14
5.391638407e+14
5.222758782e+14
5.291561593e+14
5.823219672e+14
6.692637002e+14
6.217272131e+14
5.485460422e+14
5.666849649e+14
5.529244028e+14
2.301766745e+14
7.505761124e+13
1.782618267e+14
1.382311007e+14
4.046856206e+14
2.608251991e+14
2.551958782e+14
3.021068852e+14
3.60276534e+14
3.465159719e+14
3.902995785e+14
4.891254333e+14
4.628552693e+14
4.753648712e+14
4.797432319e+14
7.180511475e+14
5.867003279e+14
7.299352693e+14
7.699659953e+14
8.656644496e+14
6.886535831e+14
7.224295082e+14
7.749698361e+14
5.085153162e+14
8.275101639e+14
6.899045433e+14
6.88028103e+14
6.110940515e+14
7.956106792e+14
7.174256674e+14
8.062438407e+14
6.461209368e+14
5.798200468e+14
5.060133958e+14
5.172720375e+14
6.442444965e+14
4.622297892e+14
5.898277283e+14
4.584769087e+14
4.884999532e+14
7.005377049e+14
5.74190726e+14
6.254800937e+13
3.94052459e+13
3.408866511e+14
9.319653396e+13
1.995281499e+14
3.47141452e+14
2.996049649e+14
1.945243091e+14
2.752112412e+14
3.521452927e+14
3.665313349e+14
3.102381265e+14
3.283770492e+14
3.283770492e+14
4.040601405e+14
4.134423419e+14
4.928783138e+14
6.436190164e+14
4.784922717e+14
6.279820141e+14
3.715351756e+14
3.796664169e+14
5.322835597e+14
1.036420515e+15
4.497201874e+14
6.07341171e+14
5.823219672e+14
7.249314286e+14
7.174256674e+14
5.485460422e+14
7.243059485e+14
8.162515222e+14
9.963897892e+14
1.087084403e+15
7.486996721e+14
8.08120281e+14
5.823219672e+14
4.603533489e+14
4.910018735e+14
4.584769087e+14
4.734884309e+14
3.54021733e+14
1.501152225e+13
6.88028103e+12
4.378360656e+13
7.255569087e+13
2.439372365e+14
1.901459485e+14
2.13914192e+14
3.80291897e+14
3.390102108e+14
3.377592506e+14
5.454186417e+14
3.752880562e+14
4.47218267e+14
4.403379859e+14
5.160210773e+14
3.87172178e+14
4.109404215e+14
5.516734426e+14
5.216503981e+14
3.796664169e+14
4.553495082e+14
7.28058829e+14
8.037419204e+14
8.41270726e+14
7.01163185e+14
6.173488525e+14
5.297816393e+14
6.586305386e+14
5.085153162e+14
4.94129274e+14
7.837265574e+14
1.021408993e+15
1.043926276e+15
9.319653396e+14
1.047053677e+15
6.379896956e+14
7.949851991e+14
6.523757377e+14
7.949851991e+14
4.503456674e+14
5.716888056e+14
5.191484778e+14
2.877208431e+14
8.318885246e+13
1.613738642e+14
2.73960281e+14
1.582464637e+14
1.657522248e+14
2.076593911e+14
2.33929555e+14
4.103149415e+14
2.971030445e+14
3.634039344e+14
4.753648712e+14
4.065620609e+14
4.960057143e+14
5.841984075e+14
3.421376112e+14
3.502688525e+14
7.587073536e+14
4.822451522e+14
5.304071194e+14
4.803687119e+14
4.703610304e+14
5.191484778e+14
4.384615457e+14
5.823219672e+14
8.181279625e+14
7.524525527e+14
4.916273536e+14
4.60978829e+14
5.454186417e+14
5.285306792e+14
8.099967213e+14
8.581586885e+14
9.388456206e+14
5.504224824e+14
4.684845902e+14
6.129704918e+14
7.305607494e+14
6.81147822e+14
5.94206089e+14
6.254800937e+14
3.915505386e+14
3.790409368e+14
1.094590164e+14
1.40107541e+14
9.820037471e+13
1.544935831e+14
1.73883466e+14
1.995281499e+14
3.27126089e+14
3.790409368e+14
2.895972834e+14
3.258751288e+14
2.927246838e+14
4.397125059e+14
5.479205621e+14
4.916273536e+14
3.953034192e+14
6.336113349e+14
5.454186417e+14
5.035114754e+14
5.166465574e+14
5.066388759e+14
6.798968618e+14
6.054647307e+14
5.053879157e+14
6.154724122e+14
6.917809836e+14
7.549544731e+14
6.573795785e+14
7.374410304e+14
4.566004684e+14
7.94359719e+14
6.442444965e+14
4.365851054e+14
7.924832787e+14
6.21101733e+14
6.060902108e+14
4.522221077e+14
4.928783138e+14
5.347854801e+14
5.923296487e+14
5.304071194e+14
4.641062295e+14
5.704378454e+14
1.013277752e+14
6.88028103e+13
7.443213115e+13
8.694173302e+13
1.057061358e+14
3.715351756e+14
2.114122717e+14
3.239986885e+14
2.220454333e+14
2.551958782e+14
3.577746136e+14
4.816196721e+14
6.523757377e+14
5.998354098e+14
5.222758782e+14
9.050696956e+14
4.916273536e+14
4.734884309e+14
4.628552693e+14
5.892022482e+14
4.60978829e+14
6.636343794e+14
5.01009555e+14
4.74113911e+14
6.661362998e+14
7.549544731e+14
8.187534426e+14
5.560518033e+14
5.841984075e+14
7.430703513e+14
4.634807494e+14
5.122681967e+14
5.160210773e+14
8.200044028e+14
7.693405152e+14
4.853725527e+14
5.266542389e+14
5.07264356e+14
6.254800937e+14
5.67310445e+14
4.797432319e+14
2.026555504e+14
5.441676815e+13
7.318117096e+13
1.344782201e+14
1.820147073e+14
2.157906323e+14
2.33929555e+14
2.27049274e+14
2.964775644e+14
3.371337705e+14
5.291561593e+14
4.334577049e+14
5.229013583e+14
5.760671663e+14
5.497970023e+14
4.922528337e+14
5.285306792e+14
5.085153162e+14
4.065620609e+14
4.6723363e+14
5.241523185e+14
4.253264637e+14
3.759135363e+14
3.659058548e+14
3.784154567e+14
4.985076347e+14
5.554263232e+14
4.616043091e+14
5.329090398e+14
8.487764871e+14
8.162515222e+14
7.774717564e+14
8.694173302e+14
8.206298829e+14
7.393174707e+14
8.124986417e+14
5.74190726e+14
8.300120843e+14
3.615274941e+14
4.653571897e+14
4.572259485e+14
5.047624356e+14
1.451113817e+14
1.688796253e+13
5.94206089e+13
1.438604215e+14
1.932733489e+14
2.570723185e+14
2.758367213e+14
2.989794848e+14
3.508943326e+14
3.965543794e+14
4.647317096e+14
5.372874005e+14
6.21101733e+14
6.336113349e+14
5.116427166e+14
4.935037939e+14
4.966311944e+14
4.928783138e+14
5.279051991e+14
5.347854801e+14
6.442444965e+14
6.74267541e+14
7.805991569e+14
5.479205621e+14
7.124218267e+14
7.94359719e+14
1.105223326e+15
9.519807026e+14
9.394711007e+14
9.501042623e+14
6.855261827e+14
7.055415457e+14
5.535498829e+14
9.845056674e+14
6.079666511e+14
8.888072131e+14
6.692637002e+14
5.823219672e+14
6.648853396e+14
6.511247775e+14
5.003840749e+14
4.897509133e+14
4.74113911e+14
1.00076815e+14
1.207176581e+14
1.663777049e+14
1.957752693e+14
2.026555504e+14
2.458136768e+14
2.93975644e+14
3.558981733e+14
3.333808899e+14
3.290025293e+14
3.765390164e+14
6.417425761e+14
4.259519438e+14
4.090639813e+14
6.167233724e+14
4.953802342e+14
4.240755035e+14
5.979589696e+14
5.967080094e+14
4.935037939e+14
4.378360656e+14
4.303303044e+14
7.168001874e+14
6.511247775e+14
7.168001874e+14
7.88104918e+14
7.968616393e+14
7.193021077e+14
5.704378454e+14
5.554263232e+14
8.28135644e+14
5.310325995e+14
5.316580796e+14
4.716119906e+14
6.523757377e+14
7.149237471e+14
6.986612646e+14
7.862284778e+14
1.080829602e+15
8.112476815e+14
6.748930211e+14
2.451881967e+14
2.445627166e+14
3.133655269e+14
2.226709133e+14
2.383079157e+14
2.920992037e+14
4.497201874e+14
3.928014988e+14
3.502688525e+14
3.064852459e+14
2.770876815e+14
3.490178923e+14
4.841215925e+14
4.459673068e+14
5.191484778e+14
4.922528337e+14
6.81147822e+14
5.122681967e+14
6.286074941e+14
5.27279719e+14
4.34083185e+14
5.422912412e+14
5.016350351e+14
7.067925059e+14
7.668385948e+14
9.801273068e+14
5.185229977e+14
4.603533489e+14
4.591023888e+14
4.584769087e+14
5.329090398e+14
5.247777986e+14
6.642598595e+14
7.117963466e+14
6.173488525e+14
4.534730679e+14
5.297816393e+14
5.510479625e+14
5.429167213e+14
7.793481967e+14
3.458904918e+14
3.746625761e+14
3.114890867e+14
1.651267447e+14
8.756721311e+13
1.063316159e+14
1.282234192e+14
1.726325059e+14
3.302534895e+14
3.877976581e+14
4.991331148e+14
3.577746136e+14
3.859212178e+14
4.447163466e+14
4.315812646e+14
4.628552693e+14
4.87248993e+14
5.028859953e+14
5.416657611e+14
4.0030726e+14
3.990562998e+14
4.34083185e+14
4.503456674e+14
6.079666511e+14
5.723142857e+14
6.085921311e+14
9.532316628e+14
8.61286089e+14
8.719192506e+14
6.092176112e+14
6.354877752e+14
6.217272131e+14
9.707451054e+14
4.866235129e+14
5.01009555e+14
7.580818735e+14
8.656644496e+14
5.322835597e+14
5.979589696e+14
6.461209368e+14
1.080204122e+15
8.018654801e+14
6.661362998e+14
5.573027635e+14
4.553495082e+14
2.445627166e+14
1.00076815e+14
1.032042155e+14
1.144628571e+14
1.826401874e+14
1.87018548e+14
2.195435129e+14
1.782618267e+14
2.745857611e+14
3.584000937e+14
3.80917377e+14
2.20168993e+14
2.833424824e+14
5.041369555e+14
6.129704918e+14
2.983540047e+14
3.296280094e+14
3.877976581e+14
4.178207026e+14
5.516734426e+14
4.653571897e+14
6.967848244e+14
7.874794379e+14
5.629320843e+14
6.417425761e+14
5.823219672e+14
8.300120843e+14
4.497201874e+14
5.879512881e+14
6.048392506e+14
6.129704918e+14
6.198507728e+14
7.230549883e+14
4.559749883e+14
5.14144637e+14
5.967080094e+14
7.218040281e+14
6.092176112e+14
6.992867447e+14
4.847470726e+14
5.660594848e+14
1.213431382e+14
6.630088993e+13
2.232963934e+14
1.26972459e+14
1.188412178e+14
2.07033911e+14
1.513661827e+14
1.638757845e+14
2.076593911e+14
5.229013583e+14
4.791177518e+14
4.0030726e+14
3.915505386e+14
4.34083185e+14
4.910018735e+14
4.184461827e+14
3.921760187e+14
4.922528337e+14
4.897509133e+14
5.967080094e+14
6.780204215e+14
6.823987822e+14
9.250850585e+14
7.430703513e+14
6.605069789e+14
4.34083185e+14
4.597278689e+14
5.779436066e+14
7.193021077e+14
6.317348946e+14
5.679359251e+14
7.837265574e+14
8.150005621e+14
6.598814988e+14
7.205530679e+14
8.425216862e+14
1.088335363e+15
9.319653396e+14
8.225063232e+14
6.861516628e+14
8.237572834e+14
7.655876347e+14
2.0015363e+14
2.564468384e+13
1.588719438e+14
5.191484778e+13
1.213431382e+14
1.225940984e+14
1.3385274e+14
2.795896019e+14
4.07187541e+14
3.984308197e+14
3.690332553e+14
4.359596253e+14
4.747393911e+14
5.003840749e+14
4.778667916e+14
4.603533489e+14
4.54098548e+14
8.469000468e+14
6.129704918e+14
6.173488525e+14
5.254032787e+14
5.028859953e+14
6.905300234e+14
6.07341171e+14
5.654340047e+14
7.130473068e+14
6.498738173e+14
6.398661358e+14
8.325140047e+14
5.641830445e+14
5.854493677e+14
5.985844496e+14
8.287611241e+14
6.61132459e+14
6.949083841e+14
7.155492272e+14
7.174256674e+14
1.195292459e+15
8.669154098e+14
7.831010773e+14
6.955338642e+14
6.204762529e+14
4.753648712e+13
6.067156909e+13
2.514429977e+14
1.494897424e+14
2.007791101e+14
1.776363466e+14
2.902227635e+14
3.446395316e+14
3.290025293e+14
4.534730679e+14
3.396356909e+14
3.677822951e+14
3.846702576e+14
3.915505386e+14
4.547240281e+14
5.21024918e+14
3.67156815e+14
4.80994192e+14
4.240755035e+14
3.659058548e+14
3.953034192e+14
4.791177518e+14
5.360364403e+14
3.902995785e+14
4.247009836e+14
4.772413115e+14
4.247009836e+14
4.347086651e+14
3.815428571e+14
6.686382201e+14
4.347086651e+14
5.648085246e+14
5.172720375e+14
5.103917564e+14
3.621529742e+14
4.878744731e+14
7.699659953e+14
1.028289274e+15
6.110940515e+14
5.460441218e+14
7.94359719e+14
5.816964871e+14
5.94206089e+13
2.877208431e+13
6.442444965e+13
1.175902576e+14
1.025787354e+14
1.288488993e+14
1.551190632e+14
1.832656674e+14
2.60199719e+14
4.428399063e+14
4.659826698e+14
5.804455269e+14
4.572259485e+14
4.228245433e+14
4.884999532e+14
5.254032787e+14
5.379128806e+14
6.398661358e+14
4.80994192e+14
5.973334895e+14
5.591792037e+14
4.94129274e+14
4.54098548e+14
4.603533489e+14
4.634807494e+14
4.465927869e+14
5.316580796e+14
4.103149415e+14
5.641830445e+14
7.962361593e+14
6.523757377e+14
6.849007026e+14
7.361900703e+14
8.913091335e+14
7.243059485e+14
5.885767681e+14
5.635575644e+14
6.448699766e+14
9.41347541e+14
8.350159251e+14
8.919346136e+14
7.055415457e+14
1.413585012e+14
2.376824356e+13
9.820037471e+13
1.807637471e+14
2.132887119e+14
2.314276347e+14
2.839679625e+14
2.839679625e+14
4.447163466e+14
3.533962529e+14
4.884999532e+14
6.692637002e+14
5.222758782e+14
5.147701171e+14
5.191484778e+14
4.884999532e+14
5.466696019e+14
6.573795785e+14
7.393174707e+14
4.747393911e+14
5.016350351e+14
5.710633255e+14
5.372874005e+14
6.88028103e+14
8.387688056e+14
6.023373302e+14
6.060902108e+14
7.512015925e+14
7.949851991e+14
9.031932553e+14
6.392406557e+14
8.619115691e+14
7.117963466e+14
6.348622951e+14
8.587841686e+14
9.970152693e+14
8.619115691e+14
7.555799532e+14
7.618347541e+14
6.279820141e+14
6.060902108e+14
5.522989227e+14
4.503456674e+14
7.505761124e+13
9.194557377e+13
1.294743794e+14
1.288488993e+14
2.220454333e+14
1.526171429e+14
1.813892272e+14
2.952266042e+14
3.227477283e+14
4.290793443e+14
4.190716628e+14
2.652035597e+14
3.152419672e+14
2.877208431e+14
2.614506792e+14
4.522221077e+14
3.752880562e+14
6.498738173e+14
5.066388759e+14
5.254032787e+14
8.106222014e+14
6.523757377e+14
7.637111944e+14
5.967080094e+14
7.105453864e+14
9.375946604e+14
5.879512881e+14
5.829474473e+14
8.118731616e+14
7.568309133e+14
7.931087588e+14
7.149237471e+14
9.776253864e+14
1.062065199e+15
9.488533021e+14
5.504224824e+14
5.27279719e+14
6.924064637e+14
5.616811241e+14
5.016350351e+14
4.353341452e+14
3.627784543e+13
1.376056206e+13
5.128936768e+13
5.441676815e+13
9.88258548e+13
1.557445433e+14
3.039833255e+14
2.026555504e+14
3.021068852e+14
3.033578454e+14
3.096126464e+14
3.083616862e+14
3.521452927e+14
3.996817799e+14
5.185229977e+14
7.01163185e+14
4.935037939e+14
5.379128806e+14
5.691868852e+14
5.691868852e+14
7.042905855e+14
4.190716628e+14
4.616043091e+14
7.174256674e+14
8.150005621e+14
7.036651054e+14
1.044551756e+15
6.849007026e+14
6.311094145e+14
7.305607494e+14
8.418962061e+14
1.152759813e+15
1.078327681e+15
8.093712412e+14
7.28058829e+14
8.0124e+14
6.936574239e+14
6.548776581e+14
6.236036534e+14
6.248546136e+14
6.223526932e+14
7.599583138e+14
5.254032787e+13
6.067156909e+13
7.755953162e+13
1.125864169e+14
1.432349415e+14
1.888949883e+14
3.877976581e+14
3.377592506e+14
4.866235129e+14
2.902227635e+14
2.677054801e+14
3.265006089e+14
3.102381265e+14
5.07264356e+14
6.461209368e+14
5.61055644e+14
5.291561593e+14
4.028091803e+14
5.354109602e+14
3.80917377e+14
5.992099297e+14
5.016350351e+14
4.240755035e+14
4.159442623e+14
7.092944262e+14
5.203994379e+14
4.171952225e+14
4.397125059e+14
4.584769087e+14
4.678591101e+14
6.598814988e+14
6.429935363e+14
7.405684309e+14
8.393942857e+14
8.787995316e+14
9.038187354e+14
5.67310445e+14
8.043674005e+14
7.236804684e+14
6.267310539e+14
5.829474473e+14
5.804455269e+14
1.044551756e+14
8.694173302e+13
1.082080562e+14
1.544935831e+14
1.813892272e+14
3.277515691e+14
2.545703981e+14
2.326785948e+14
2.383079157e+14
2.426862763e+14
3.027323653e+14
3.377592506e+14
4.622297892e+14
4.240755035e+14
5.641830445e+14
3.502688525e+14
4.27202904e+14
3.902995785e+14
3.890486183e+14
3.127400468e+14
3.690332553e+14
3.615274941e+14
3.427630913e+14
4.247009836e+14
4.347086651e+14
5.94206089e+14
5.216503981e+14
4.465927869e+14
3.928014988e+14
4.028091803e+14
4.603533489e+14
5.435422014e+14
3.990562998e+14
3.709096956e+14
6.023373302e+14
6.035882904e+14
7.649621546e+14
6.104685714e+14
4.253264637e+14
5.904532084e+14
4.766158314e+14
4.397125059e+14
6.254800937e+12
4.128168618e+13
6.379896956e+13
7.568309133e+13
1.657522248e+14
1.238450585e+14
2.239218735e+14
2.727093208e+14
2.27049274e+14
3.296280094e+14
4.347086651e+14
2.920992037e+14
4.447163466e+14
3.590255738e+14
3.146164871e+14
3.052342857e+14
3.133655269e+14
3.327554098e+14
3.971798595e+14
3.80291897e+14
4.465927869e+14
3.815428571e+14
6.292329742e+14
5.41040281e+14
7.111708665e+14
9.138264169e+14
5.128936768e+14
5.254032787e+14
5.297816393e+14
5.679359251e+14
5.679359251e+14
6.548776581e+14
6.423680562e+14
6.27356534e+14
6.442444965e+14
5.685614052e+14
6.242291335e+14
1.030791194e+15
4.822451522e+14
5.560518033e+14
5.985844496e+14
5.935806089e+14
5.560518033e+14
7.218040281e+14
3.114890867e+14
5.491715222e+14
7.374410304e+14
3.383847307e+14
2.395588759e+14
4.034346604e+14
8.237572834e+14
1.093964684e+15
5.885767681e+14
7.668385948e+14
1.193416019e+15
5.247777986e+14
6.992867447e+14
6.905300234e+14
8.28135644e+14
6.648853396e+14
7.386919906e+14
8.863052927e+14
9.369691803e+14
6.892790632e+14
8.706682904e+14
1.115856487e+15
1.038296956e+15
1.373554286e+15
1.751969742e+15
1.19967082e+15
9.588609836e+14
9.594864637e+14
1.050806557e+15
1.006397471e+15
1.027663794e+15
9.801273068e+14
1.027038314e+15
9.95138829e+14
9.526061827e+14
1.143377611e+15
1.072072881e+15
1.13211897e+15
1.087709883e+15
1.06581808e+15
3.790409368e+14
4.722374707e+14
9.357182201e+14
5.979589696e+14
8.562822482e+14
1.261593349e+15
1.033293115e+15
1.481136862e+15
1.218435222e+15
2.089728993e+15
6.949083841e+14
9.000658548e+14
1.352287963e+15
7.599583138e+14
6.792713817e+14
1.059563279e+15
1.222188103e+15
8.756721311e+14
1.089586323e+15
1.459870539e+15
1.194041499e+15
1.307253396e+15
1.027038314e+15
1.20092178e+15
1.160891054e+15
1.758850023e+15
1.281608712e+15
1.772610585e+15