/*--------------------------------*- C++ -*----------------------------------*\
| =========                 |                                                 |
| \\      /  F ield         | OpenFOAM: The Open Source CFD Toolbox           |
|  \\    /   O peration     | Version:  v1706                                 |
|   \\  /    A nd           | Web:      www.OpenFOAM.com                      |
|    \\/     M anipulation  |                                                 |
\*---------------------------------------------------------------------------*/
FoamFile
{
    version     2.0;
    format      ascii;
    class       volScalarField;
    location    "3.989";
    object      rhoN_N2;
}
// * * * * * * * * * * * * * * * * * * * * * * * * * * * * * * * * * * * * * //

dimensions      [0 -3 0 0 0 0 0];


internalField   nonuniform List<scalar> 
50792
(
2.658290398e+14
2.814660422e+14
5.816964871e+14
6.21101733e+14
7.718424356e+14
1.153385293e+15
1.422341733e+15
1.13399541e+15
1.382936487e+15
1.342905761e+15
1.519916628e+15
1.379183607e+15
1.808262951e+15
1.594974239e+15
1.850795597e+15
2.152902482e+15
1.777614426e+15
1.814517752e+15
2.030933864e+15
1.931482529e+15
2.457511288e+15
2.479403091e+15
2.150400562e+15
2.379326276e+15
2.716460047e+15
2.145396721e+15
2.126006838e+15
2.925370398e+15
2.479403091e+15
2.53694726e+15
2.914111756e+15
2.653912037e+15
2.620761593e+15
2.73522445e+15
2.440623326e+15
2.551958782e+15
2.794645059e+15
2.40309452e+15
2.594491429e+15
2.758992693e+15
2.94038192e+15
2.933501639e+15
2.051574707e+14
1.832656674e+14
2.814660422e+14
4.221990632e+14
7.430703513e+14
7.824755972e+14
6.974103044e+14
7.856029977e+14
9.188302576e+14
9.938878689e+14
1.083957002e+15
1.13462089e+15
1.262844309e+15
1.632503044e+15
1.903335925e+15
1.708811616e+15
1.633754005e+15
1.675035691e+15
1.80325911e+15
1.716942857e+15
1.679414052e+15
1.650016487e+15
1.905837845e+15
2.179798126e+15
2.493789133e+15
2.266114379e+15
2.13601452e+15
2.353056112e+15
2.418106042e+15
2.298013864e+15
2.399341639e+15
2.07033911e+15
2.159157283e+15
2.019049742e+15
1.927104169e+15
2.439372365e+15
2.13914192e+15
2.571974145e+15
2.364940234e+15
2.444376206e+15
1.881444122e+15
2.009667541e+15
2.232963934e+14
2.20168993e+14
3.890486183e+14
5.729397658e+14
6.955338642e+14
9.207066979e+14
1.037671475e+15
1.052057518e+15
1.225940984e+15
1.364172084e+15
1.616866042e+15
1.322264918e+15
1.780741827e+15
1.582464637e+15
1.646263607e+15
1.53617911e+15
1.776988946e+15
1.969011335e+15
2.244848056e+15
2.239218735e+15
2.063458829e+15
1.843915316e+15
2.324909508e+15
2.264863419e+15
2.032810304e+15
2.309272506e+15
2.114748197e+15
1.656896768e+15
2.274245621e+15
2.458136768e+15
2.224832693e+15
2.034061265e+15
2.177296206e+15
2.53944918e+15
2.449380047e+15
2.408723841e+15
2.550707822e+15
2.655788478e+15
2.717711007e+15
2.46939541e+15
2.131010679e+15
2.265488899e+15
1.888949883e+14
3.296280094e+14
3.709096956e+14
5.191484778e+14
6.917809836e+14
6.104685714e+14
8.175024824e+14
8.425216862e+14
9.232086183e+14
1.310380796e+15
1.631877564e+15
1.539931991e+15
2.007791101e+15
1.478009461e+15
1.716942857e+15
2.186678407e+15
1.836409555e+15
2.012169461e+15
1.67128281e+15
2.447503607e+15
2.483155972e+15
2.366191194e+15
2.051574707e+15
2.660792319e+15
2.999802529e+15
2.448129087e+15
2.13476356e+15
1.977142576e+15
2.502545855e+15
2.73584993e+15
2.030308384e+15
2.186678407e+15
1.964007494e+15
2.119752037e+15
2.364940234e+15
2.177296206e+15
2.300515785e+15
2.60512459e+15
2.971655925e+15
2.476275691e+15
2.491287213e+15
2.586985667e+15
1.93898829e+14
4.440908665e+14
2.351805152e+14
4.566004684e+14
5.660594848e+14
7.136727869e+14
1.057686838e+15
9.338417799e+14
1.005771991e+15
1.279106792e+15
1.192165059e+15
1.150257892e+15
1.422967213e+15
1.394195129e+15
1.838911475e+15
1.86893452e+15
1.925853208e+15
2.089103513e+15
2.343673911e+15
2.347426792e+15
2.353681593e+15
3.13928459e+15
2.838428665e+15
2.422484403e+15
2.996049649e+15
2.488159813e+15
2.299890304e+15
2.197937049e+15
2.182925527e+15
2.432492084e+15
2.483155972e+15
1.749467822e+15
2.074091991e+15
1.945868571e+15
2.022177143e+15
2.479403091e+15
2.309272506e+15
2.533194379e+15
2.727718689e+15
2.276122061e+15
2.299264824e+15
2.085976112e+15
6.204762529e+14
1.982771897e+14
5.247777986e+14
4.622297892e+14
5.285306792e+14
6.392406557e+14
6.773949415e+14
7.737188759e+14
9.907604684e+14
9.863821077e+14
1.112729087e+15
1.606858361e+15
1.410457611e+15
1.60435644e+15
1.485515222e+15
1.60060356e+15
1.732579859e+15
1.848919157e+15
2.332415269e+15
2.363063794e+15
2.505047775e+15
2.67205096e+15
3.176187916e+15
2.890343513e+15
2.251102857e+15
2.368067635e+15
2.429364684e+15
2.677680281e+15
2.732722529e+15
2.00216178e+15
2.651410117e+15
1.910841686e+15
2.229836534e+15
2.131636159e+15
2.107867916e+15
2.449380047e+15
2.087227073e+15
2.295511944e+15
2.119752037e+15
2.280500422e+15
2.13851644e+15
2.018424262e+15
2.977285246e+14
2.014045902e+14
3.796664169e+14
4.515966276e+14
5.391638407e+14
6.492483372e+14
1.110852646e+15
1.212180422e+15
1.051432037e+15
1.060814239e+15
1.219060703e+15
1.33477452e+15
1.531800749e+15
1.429222014e+15
1.33477452e+15
1.410457611e+15
1.878942201e+15
1.714440937e+15
1.840787916e+15
2.278623981e+15
2.195435129e+15
2.963524684e+15
2.864698829e+15
2.430615644e+15
2.874706511e+15
2.844057986e+15
2.164161124e+15
2.385581077e+15
2.00091082e+15
2.311148946e+15
2.80465274e+15
2.766498454e+15
2.364940234e+15
2.345550351e+15
2.563217424e+15
2.173543326e+15
2.129759719e+15
2.662043279e+15
2.54007466e+15
2.849061827e+15
2.523186698e+15
1.982771897e+15
3.865466979e+14
2.082848712e+14
2.645780796e+14
3.677822951e+14
4.953802342e+14
5.816964871e+14
9.044442155e+14
8.888072131e+14
9.832547073e+14
1.205300141e+15
1.170898735e+15
1.214056862e+15
1.351037002e+15
1.588719438e+15
1.590595878e+15
1.994656019e+15
2.423109883e+15
2.192933208e+15
1.942741171e+15
2.092856393e+15
1.685668852e+15
2.050323747e+15
2.222330773e+15
2.0046637e+15
2.423109883e+15
2.351179672e+15
2.612004871e+15
2.358685433e+15
2.522561218e+15
2.548205902e+15
2.727093208e+15
2.446878126e+15
2.446878126e+15
2.300515785e+15
2.46751897e+15
2.286129742e+15
2.834675785e+15
3.059848618e+15
2.709579766e+15
2.40246904e+15
2.328662389e+15
2.254855738e+15
4.778667916e+14
3.077362061e+14
5.172720375e+14
6.417425761e+14
8.850543326e+14
9.820037471e+14
9.394711007e+14
1.127740609e+15
1.293492834e+15
1.250334707e+15
1.339778361e+15
1.484889742e+15
1.388565808e+15
1.693800094e+15
1.5993526e+15
1.897081124e+15
1.913343607e+15
1.686294333e+15
1.900208525e+15
2.056578548e+15
1.860177799e+15
2.239218735e+15
1.674410211e+15
1.66752993e+15
2.262986979e+15
2.656413958e+15
2.100362155e+15
2.283002342e+15
2.042817986e+15
2.303017705e+15
1.894579204e+15
2.239844215e+15
2.513179016e+15
2.223581733e+15
2.588862108e+15
1.956501733e+15
2.980412646e+15
3.000428009e+15
2.577603466e+15
3.016690492e+15
2.378075316e+15
2.081597752e+15
6.035882904e+14
1.807637471e+14
3.552726932e+14
4.046856206e+14
9.28212459e+14
9.100735363e+14
8.362668852e+14
1.123987728e+15
1.356040843e+15
1.398573489e+15
1.419214333e+15
1.768232225e+15
1.540557471e+15
1.635004965e+15
1.613113162e+15
1.931482529e+15
1.673784731e+15
2.027806464e+15
2.503171335e+15
2.399967119e+15
2.752737892e+15
2.085976112e+15
2.560715504e+15
2.049698267e+15
2.308647026e+15
2.082223232e+15
2.421858923e+15
2.505047775e+15
2.526314098e+15
2.551958782e+15
2.445001686e+15
2.565719344e+15
2.112246276e+15
2.361187354e+15
2.212323091e+15
2.510051616e+15
2.895972834e+15
2.880961311e+15
2.425611803e+15
2.875331991e+15
2.608251991e+15
2.266739859e+15
5.848238876e+14
2.283002342e+14
3.765390164e+14
6.123450117e+14
1.019532553e+15
1.151508852e+15
9.125754567e+14
1.20467466e+15
1.416712412e+15
1.462997939e+15
1.554318033e+15
1.432974895e+15
1.40107541e+15
1.368550445e+15
1.6056074e+15
1.79950623e+15
1.746340422e+15
1.836409555e+15
1.793876909e+15
2.095358314e+15
2.042192506e+15
2.593240468e+15
2.378700796e+15
2.190431288e+15
2.155404403e+15
2.157906323e+15
2.20544281e+15
2.47064637e+15
2.249226417e+15
2.398090679e+15
2.47252281e+15
2.158531803e+15
2.650159157e+15
2.451881967e+15
2.528816019e+15
2.348052272e+15
2.892219953e+15
2.775880656e+15
2.849061827e+15
2.617634192e+15
2.701448525e+15
2.379951756e+15
4.503456674e+14
2.589487588e+14
3.971798595e+14
5.529244028e+14
6.855261827e+14
1.110227166e+15
7.974871194e+14
1.231570304e+15
1.517414707e+15
1.357291803e+15
1.464874379e+15
1.922725808e+15
1.73695822e+15
1.529298829e+15
1.579337237e+15
1.715066417e+15
1.886447963e+15
1.908339766e+15
2.458136768e+15
2.392461358e+15
2.129134239e+15
2.332415269e+15
2.189805808e+15
1.977142576e+15
1.930231569e+15
1.997157939e+15
2.256106698e+15
1.966509415e+15
2.566970304e+15
2.060331429e+15
2.53757274e+15
2.262361499e+15
2.348677752e+15
1.781992787e+15
1.730077939e+15
1.882069602e+15
1.878316721e+15
2.192307728e+15
2.229836534e+15
2.221705293e+15
2.117250117e+15
1.776988946e+15
4.80994192e+14
2.007791101e+14
3.13991007e+14
4.566004684e+14
6.805223419e+14
9.688686651e+14
8.925600937e+14
1.063941639e+15
1.308504356e+15
1.307253396e+15
1.172775176e+15
1.93648637e+15
1.755097143e+15
1.706935176e+15
1.369801405e+15
1.4673763e+15
1.80013171e+15
1.740085621e+15
1.992779578e+15
2.371820515e+15
1.970262295e+15
1.757599063e+15
2.296762904e+15
2.1397674e+15
2.278623981e+15
2.065335269e+15
2.074717471e+15
2.563842904e+15
2.999802529e+15
2.685186042e+15
2.186052927e+15
2.221705293e+15
2.448754567e+15
2.450631007e+15
2.376198876e+15
2.477526651e+15
2.461889649e+15
2.054076628e+15
2.126006838e+15
2.110369836e+15
2.20419185e+15
1.710688056e+15
4.465927869e+14
3.177438876e+14
4.334577049e+14
5.254032787e+14
7.774717564e+14
8.875562529e+14
7.305607494e+14
1.222813583e+15
1.026412834e+15
1.317261077e+15
1.189663138e+15
1.4673763e+15
1.151508852e+15
1.751344262e+15
1.688170773e+15
1.482387822e+15
1.624371803e+15
1.811390351e+15
1.639383326e+15
1.598101639e+15
1.80075719e+15
2.089728993e+15
2.047821827e+15
2.741479251e+15
2.794019578e+15
2.502545855e+15
2.695193724e+15
2.93600356e+15
2.688938923e+15
2.050949227e+15
2.178547166e+15
2.429364684e+15
2.231087494e+15
2.211072131e+15
2.090354473e+15
2.849061827e+15
2.525688618e+15
2.017173302e+15
2.217952412e+15
2.182300047e+15
2.378075316e+15
2.034061265e+15
7.205530679e+14
1.726325059e+14
3.652803747e+14
5.372874005e+14
6.048392506e+14
7.486996721e+14
1.016405152e+15
9.719960656e+14
1.245330867e+15
1.444859016e+15
1.324766838e+15
1.39919897e+15
1.288488993e+15
1.441106136e+15
1.755722623e+15
1.729452459e+15
1.518665667e+15
1.905212365e+15
2.13538904e+15
2.061582389e+15
1.73883466e+15
1.945868571e+15
2.117250117e+15
2.324284028e+15
2.238593255e+15
2.33804459e+15
1.840787916e+15
2.158531803e+15
2.443750726e+15
3.027323653e+15
2.796521499e+15
2.465017049e+15
2.095983794e+15
2.087852553e+15
2.511928056e+15
2.383079157e+15
2.525688618e+15
2.615757752e+15
2.441874286e+15
1.830780234e+15
2.197937049e+15
1.792000468e+15
5.67310445e+14
1.551190632e+14
2.526939578e+14
4.046856206e+14
7.274333489e+14
7.386919906e+14
7.762207963e+14
1.103346885e+15
1.151508852e+15
1.354164403e+15
1.377307166e+15
1.243454426e+15
1.391067728e+15
1.653143888e+15
1.517414707e+15
1.73320534e+15
2.411851241e+15
2.075968431e+15
2.018424262e+15
2.349928712e+15
2.259234098e+15
2.300515785e+15
1.86956e+15
2.025304543e+15
2.197937049e+15
2.26924178e+15
2.845934426e+15
2.799648899e+15
2.315527307e+15
2.589487588e+15
2.327411429e+15
2.075342951e+15
2.290508103e+15
1.87143644e+15
2.697070164e+15
1.93836281e+15
2.366816674e+15
2.035312225e+15
1.900834005e+15
2.114748197e+15
2.126006838e+15
2.167914005e+15
3.865466979e+14
2.120377518e+14
3.039833255e+14
3.978053396e+14
6.154724122e+14
6.198507728e+14
8.087457611e+14
1.143377611e+15
1.057686838e+15
1.257214988e+15
9.388456206e+14
1.224064543e+15
1.712564496e+15
1.331021639e+15
1.456743138e+15
1.517414707e+15
1.362295644e+15
1.785120187e+15
2.464391569e+15
2.00216178e+15
1.767606745e+15
1.773861546e+15
1.923976768e+15
2.13601452e+15
2.153527963e+15
1.883320562e+15
2.521935738e+15
2.160408244e+15
2.451881967e+15
2.368067635e+15
2.316152787e+15
2.283002342e+15
2.541325621e+15
2.782135457e+15
3.275639251e+15
2.947262201e+15
3.13615719e+15
2.795270539e+15
2.660166838e+15
2.912860796e+15
2.376198876e+15
1.93711185e+15
7.587073536e+14
2.426862763e+14
2.777131616e+14
3.208712881e+14
4.928783138e+14
5.14144637e+14
8.231318033e+14
8.675408899e+14
1.213431382e+15
1.312257237e+15
1.227817424e+15
1.26534623e+15
1.301624075e+15
1.396697049e+15
1.627499204e+15
1.798880749e+15
1.721321218e+15
1.834533115e+15
2.517557377e+15
2.60074623e+15
2.092856393e+15
2.062207869e+15
1.914594567e+15
2.451256487e+15
1.852672037e+15
2.276122061e+15
1.848293677e+15
1.675035691e+15
1.659398689e+15
1.80451007e+15
2.149149602e+15
2.146647681e+15
2.141643841e+15
2.27049274e+15
2.53694726e+15
2.854065667e+15
2.982289087e+15
2.498167494e+15
2.731471569e+15
2.344924871e+15
2.323658548e+15
1.913969087e+15
4.978821546e+14
1.482387822e+14
3.752880562e+14
4.096894614e+14
5.816964871e+14
7.949851991e+14
1.025787354e+15
9.3509274e+14
1.182157377e+15
1.322264918e+15
1.579962717e+15
1.381685527e+15
1.421090773e+15
1.657522248e+15
2.097860234e+15
1.903961405e+15
1.810139391e+15
1.857675878e+15
2.012169461e+15
2.219203372e+15
2.038439625e+15
2.107867916e+15
2.043443466e+15
2.719587447e+15
2.251728337e+15
2.383704637e+15
2.93600356e+15
2.635773115e+15
2.583858267e+15
2.728969649e+15
2.488785293e+15
2.8059037e+15
2.326160468e+15
2.359310913e+15
2.551333302e+15
2.584483747e+15
2.877833911e+15
2.517557377e+15
2.231087494e+15
2.169164965e+15
2.282376862e+15
1.974015176e+15
8.750466511e+14
1.901459485e+14
3.177438876e+14
4.953802342e+14
7.693405152e+14
7.243059485e+14
9.250850585e+14
9.375946604e+14
1.021408993e+15
1.483638782e+15
1.778865386e+15
1.437353255e+15
1.617491522e+15
1.783869227e+15
1.724448618e+15
2.06971363e+15
2.074091991e+15
2.26736534e+15
1.592472319e+15
2.229836534e+15
2.280500422e+15
2.347426792e+15
2.356808993e+15
2.910358876e+15
2.663294239e+15
2.731471569e+15
2.930999719e+15
2.577603466e+15
2.187303888e+15
2.294260984e+15
2.13664e+15
2.014045902e+15
2.107242436e+15
2.546329461e+15
2.123504918e+15
1.850795597e+15
2.225458173e+15
2.183551007e+15
2.373696956e+15
2.195435129e+15
2.117875597e+15
2.025930023e+15
1.2034237e+15
2.214199532e+14
4.347086651e+14
6.223526932e+14
7.61209274e+14
8.550312881e+14
1.043926276e+15
1.252836628e+15
1.491144543e+15
1.579962717e+15
1.531175269e+15
2.043443466e+15
1.710688056e+15
2.912860796e+15
1.999034379e+15
2.041567026e+15
3.008559251e+15
2.5388237e+15
2.33491719e+15
2.478777611e+15
3.100504824e+15
2.519433817e+15
2.228585574e+15
2.436870445e+15
2.379951756e+15
2.383079157e+15
2.713958126e+15
2.555086183e+15
2.561340984e+15
2.090354473e+15
2.177921686e+15
2.159782763e+15
2.33616815e+15
2.13476356e+15
2.051574707e+15
2.262361499e+15
2.075968431e+15
2.319280187e+15
1.968385855e+15
1.677537611e+15
1.845791756e+15
1.763853864e+15
8.193789227e+14
1.695051054e+14
3.146164871e+14
5.053879157e+14
6.311094145e+14
6.336113349e+14
8.719192506e+14
9.763744262e+14
9.870075878e+14
1.139624731e+15
1.339778361e+15
1.655645808e+15
1.897081124e+15
2.015296862e+15
2.67142548e+15
2.289882623e+15
2.239844215e+15
2.502545855e+15
2.160408244e+15
2.27049274e+15
2.595742389e+15
2.53757274e+15
2.929748759e+15
2.628267354e+15
2.369944075e+15
2.40434548e+15
2.578854426e+15
2.233589415e+15
1.992779578e+15
2.4005926e+15
2.498792974e+15
2.20419185e+15
2.221079813e+15
2.453758407e+15
1.946494052e+15
2.434994005e+15
2.154778923e+15
2.448129087e+15
1.763228384e+15
2.128508759e+15
1.910216206e+15
1.626248244e+15
2.877208431e+14
1.93898829e+14
3.734116159e+14
3.727861358e+14
5.285306792e+14
6.630088993e+14
6.936574239e+14
8.675408899e+14
9.41347541e+14
1.210303981e+15
1.122736768e+15
1.139624731e+15
1.252836628e+15
1.746965902e+15
1.394195129e+15
2.0015363e+15
2.007165621e+15
2.166663044e+15
2.092856393e+15
1.885822482e+15
2.063458829e+15
2.100362155e+15
2.451881967e+15
2.129134239e+15
3.035454895e+15
2.213574052e+15
2.463140609e+15
2.425611803e+15
2.276122061e+15
2.608877471e+15
2.700823044e+15
3.179315316e+15
2.884088712e+15
2.443750726e+15
2.731471569e+15
2.513804496e+15
2.920366557e+15
2.978536206e+15
2.511928056e+15
2.434368525e+15
2.115373677e+15
1.963382014e+15
6.129704918e+14
4.359596253e+14
2.952266042e+14
4.265774239e+14
7.336881499e+14
6.842752225e+14
8.431471663e+14
9.138264169e+14
1.028289274e+15
1.383561967e+15
1.664402529e+15
1.461746979e+15
1.763853864e+15
1.675035691e+15
1.685668852e+15
1.781992787e+15
2.1335126e+15
2.213574052e+15
2.277373021e+15
1.713815457e+15
1.798880749e+15
1.998408899e+15
2.222330773e+15
2.057829508e+15
2.745857611e+15
2.243597096e+15
2.357434473e+15
1.93898829e+15
1.953999813e+15
1.796378829e+15
2.06846267e+15
2.321156628e+15
2.485032412e+15
2.222956253e+15
2.226709133e+15
2.243597096e+15
2.412476721e+15
2.864073349e+15
2.40559644e+15
2.521935738e+15
2.216701452e+15
1.984022857e+15
7.286843091e+14
1.394820609e+14
2.514429977e+14
4.359596253e+14
4.891254333e+14
6.023373302e+14
8.475255269e+14
8.575332084e+14
1.062065199e+15
1.441106136e+15
1.584966557e+15
1.706935176e+15
1.811390351e+15
1.653143888e+15
2.062207869e+15
2.323658548e+15
1.960880094e+15
2.254230258e+15
1.927729649e+15
2.46876993e+15
1.818270632e+15
1.930231569e+15
2.017798782e+15
2.232963934e+15
2.294886464e+15
2.510677096e+15
2.182300047e+15
2.181674567e+15
2.105365995e+15
2.20106445e+15
2.129759719e+15
2.573225105e+15
2.67142548e+15
2.546954941e+15
2.376198876e+15
2.341797471e+15
2.164786604e+15
2.418106042e+15
1.977142576e+15
1.888949883e+15
2.13476356e+15
1.888949883e+15
5.516734426e+14
1.3322726e+14
3.527707728e+14
4.265774239e+14
6.07341171e+14
8.519038876e+14
9.663667447e+14
1.024536393e+15
9.876330679e+14
1.287863513e+15
1.152134333e+15
1.299122155e+15
1.723823138e+15
1.932108009e+15
2.127257799e+15
2.179798126e+15
1.80388459e+15
2.009667541e+15
1.718193817e+15
1.970887775e+15
1.655020328e+15
1.621244403e+15
2.174794286e+15
2.219828852e+15
2.197937049e+15
2.302392225e+15
2.766498454e+15
2.857193068e+15
2.733973489e+15
2.688313443e+15
2.60637555e+15
2.230462014e+15
2.80652918e+15
2.568221265e+15
2.646406276e+15
2.394963279e+15
1.947745012e+15
2.217326932e+15
2.508175176e+15
2.350554192e+15
2.050949227e+15
2.677680281e+15
1.795127869e+14
1.720070258e+14
5.829474473e+14
7.349391101e+14
5.591792037e+14
7.624602342e+14
8.062438407e+14
9.394711007e+14
1.030791194e+15
1.103972365e+15
1.226566464e+15
1.545561311e+15
1.500526745e+15
1.897706604e+15
1.873312881e+15
1.910216206e+15
2.521310258e+15
2.513804496e+15
2.284253302e+15
2.619510632e+15
2.476901171e+15
1.955876253e+15
2.117875597e+15
2.214199532e+15
2.646406276e+15
2.167914005e+15
2.596993349e+15
2.630143794e+15
3.00668281e+15
2.301141265e+15
2.698321124e+15
2.621387073e+15
2.411851241e+15
2.581356347e+15
2.383704637e+15
2.279249461e+15
2.314276347e+15
2.025304543e+15
2.183551007e+15
2.163535644e+15
1.900208525e+15
2.277373021e+15
5.047624356e+14
3.246241686e+14
3.552726932e+14
7.662131148e+14
7.849775176e+14
1.06644356e+15
9.075716159e+14
8.956874941e+14
1.036420515e+15
1.098343044e+15
1.371052365e+15
1.518040187e+15
1.225315504e+15
1.831405714e+15
1.87018548e+15
1.941490211e+15
2.162284684e+15
2.164161124e+15
2.082848712e+15
2.20043897e+15
2.593865948e+15
2.089728993e+15
1.989652178e+15
1.989652178e+15
2.222956253e+15
2.057829508e+15
2.422484403e+15
2.615132272e+15
2.777131616e+15
2.66954904e+15
2.667047119e+15
2.764622014e+15
2.753988852e+15
2.705826885e+15
3.06923082e+15
2.481905012e+15
2.884714192e+15
2.495665574e+15
2.708954286e+15
2.372445995e+15
2.239844215e+15
2.107867916e+15
5.14144637e+14
3.008559251e+14
7.868539578e+14
7.649621546e+14
5.566772834e+14
6.373642155e+14
9.457259016e+14
9.888840281e+14
1.193416019e+15
1.250960187e+15
1.391693208e+15
1.622495363e+15
1.618742482e+15
1.709437096e+15
1.876440281e+15
1.576835316e+15
1.897706604e+15
2.558839063e+15
1.910216206e+15
2.33867007e+15
2.33679363e+15
2.018424262e+15
2.13538904e+15
2.389959438e+15
2.552584262e+15
2.277998501e+15
2.585734707e+15
2.179798126e+15
2.800899859e+15
2.947262201e+15
2.372445995e+15
2.227334614e+15
2.645780796e+15
2.20294089e+15
2.304894145e+15
2.832799344e+15
2.453758407e+15
2.47252281e+15
2.528190539e+15
2.356183513e+15
2.478777611e+15
2.47314829e+15
3.177438876e+14
2.226709133e+14
4.190716628e+14
6.504992974e+14
6.160978923e+14
7.261823888e+14
7.843520375e+14
1.142126651e+15
1.294743794e+15
1.13462089e+15
1.422341733e+15
1.549939672e+15
1.856424918e+15
1.93648637e+15
2.112871756e+15
1.840162436e+15
2.019675222e+15
2.161659204e+15
2.636398595e+15
2.091605433e+15
2.40121808e+15
2.259234098e+15
2.309897986e+15
3.3400637e+15
2.504422295e+15
2.316778267e+15
2.363063794e+15
2.344924871e+15
1.972764215e+15
1.87206192e+15
2.062833349e+15
1.885822482e+15
1.606858361e+15
2.057204028e+15
1.913343607e+15
2.281751382e+15
2.384955597e+15
2.611379391e+15
2.412476721e+15
2.234214895e+15
1.948370492e+15
1.966509415e+15
2.451881967e+14
2.295511944e+14
3.54021733e+14
3.902995785e+14
5.3416e+14
7.524525527e+14
1.061439719e+15
8.08120281e+14
1.205925621e+15
1.315384637e+15
1.102095925e+15
1.255338548e+15
1.3322726e+15
1.861428759e+15
1.726325059e+15
1.651892927e+15
1.982146417e+15
1.554943513e+15
2.090354473e+15
1.912092646e+15
2.611379391e+15
2.031559344e+15
2.27049274e+15
1.862054239e+15
2.112246276e+15
1.726325059e+15
1.984648337e+15
1.985273817e+15
2.315527307e+15
1.989652178e+15
2.151026042e+15
2.372445995e+15
2.255481218e+15
1.997783419e+15
1.970887775e+15
2.363689274e+15
2.13726548e+15
2.242971616e+15
2.573225105e+15
2.209821171e+15
2.566344824e+15
2.155404403e+15
3.921760187e+14
3.096126464e+14
2.971030445e+14
4.028091803e+14
5.466696019e+14
8.087457611e+14
1.00389555e+15
1.123987728e+15
1.113980047e+15
1.038296956e+15
1.302249555e+15
1.276604871e+15
1.428596534e+15
1.351037002e+15
1.676912131e+15
1.847042717e+15
2.065960749e+15
2.060956909e+15
2.043443466e+15
2.477526651e+15
2.981663607e+15
2.621387073e+15
2.430615644e+15
2.447503607e+15
2.73897733e+15
2.323658548e+15
2.127257799e+15
2.1335126e+15
2.67017452e+15
2.397465199e+15
2.60449911e+15
2.844057986e+15
2.383079157e+15
2.374947916e+15
2.157280843e+15
2.428113724e+15
2.53632178e+15
2.436870445e+15
2.047821827e+15
2.351805152e+15
2.083474192e+15
2.00216178e+15
3.659058548e+14
3.615274941e+14
3.565236534e+14
4.597278689e+14
6.711401405e+14
6.373642155e+14
7.981125995e+14
9.763744262e+14
1.548688712e+15
1.539306511e+15
1.419214333e+15
1.693174614e+15
1.756348103e+15
1.791374988e+15
2.427488244e+15
1.975891616e+15
2.293010023e+15
2.495665574e+15
2.024053583e+15
2.441248806e+15
2.707077845e+15
2.785262857e+15
2.727718689e+15
3.134280749e+15
2.638275035e+15
2.799648899e+15
2.156655363e+15
2.014671382e+15
2.113497237e+15
2.277373021e+15
2.581981827e+15
2.53944918e+15
2.40497096e+15
2.786513817e+15
2.140392881e+15
2.132887119e+15
1.876440281e+15
2.199813489e+15
2.33679363e+15
2.571974145e+15
2.262986979e+15
1.913969087e+15
1.282234192e+14
2.045319906e+14
2.883463232e+14
4.966311944e+14
5.454186417e+14
7.149237471e+14
1.141501171e+15
1.142126651e+15
1.392318689e+15
1.230944824e+15
1.624371803e+15
1.503654145e+15
1.448611897e+15
1.743838501e+15
2.105991475e+15
2.020300703e+15
2.169164965e+15
2.20231541e+15
1.826401874e+15
2.166663044e+15
2.381202717e+15
2.26986726e+15
2.458136768e+15
2.261736019e+15
2.109118876e+15
2.409974801e+15
2.627641874e+15
2.298013864e+15
2.376824356e+15
2.044694426e+15
2.052200187e+15
2.184176487e+15
2.354307073e+15
2.142269321e+15
2.501294895e+15
2.20419185e+15
2.020300703e+15
2.167288525e+15
2.132887119e+15
2.291133583e+15
2.192307728e+15
2.07221555e+15
2.814660422e+14
1.770108665e+14
3.308789696e+14
6.254800937e+14
1.034544075e+15
8.775485714e+14
1.008273911e+15
1.19904534e+15
1.042675316e+15
1.389191288e+15
1.519916628e+15
1.124613208e+15
1.300998595e+15
1.397948009e+15
1.609360281e+15
1.549939672e+15
1.574958876e+15
1.989652178e+15
1.686919813e+15
1.697552974e+15
1.79950623e+15
2.363063794e+15
1.918972927e+15
2.660792319e+15
2.420607963e+15
2.13538904e+15
2.289882623e+15
2.311148946e+15
2.087227073e+15
2.189805808e+15
1.915845527e+15
2.156655363e+15
2.317403747e+15
2.510677096e+15
2.33429171e+15
2.488159813e+15
2.383079157e+15
2.379951756e+15
2.73584993e+15
2.093481874e+15
1.830780234e+15
2.252979297e+15
5.147701171e+14
1.970262295e+14
3.421376112e+14
4.591023888e+14
6.223526932e+14
7.255569087e+14
9.976407494e+14
1.255964028e+15
1.357917283e+15
1.441106136e+15
1.653143888e+15
1.616866042e+15
1.750718782e+15
1.996532459e+15
1.607483841e+15
1.686294333e+15
1.591221358e+15
2.115373677e+15
2.309897986e+15
2.326785948e+15
1.991528618e+15
2.33679363e+15
2.359936393e+15
2.453758407e+15
2.296137424e+15
2.303643185e+15
2.412476721e+15
2.121002998e+15
2.712081686e+15
1.932108009e+15
2.121002998e+15
2.035937705e+15
1.759475504e+15
2.009042061e+15
2.348052272e+15
2.432492084e+15
2.60575007e+15
2.573225105e+15
2.54007466e+15
2.730846089e+15
2.491287213e+15
2.27049274e+15
5.604301639e+14
2.157906323e+14
3.315044496e+14
4.372105855e+14
5.385383607e+14
6.905300234e+14
1.008899391e+15
1.148381452e+15
1.054559438e+15
1.636881405e+15
1.581213677e+15
1.659398689e+15
1.982771897e+15
1.7375837e+15
1.812015831e+15
1.93335897e+15
1.792625948e+15
2.13538904e+15
2.163535644e+15
2.085976112e+15
1.93711185e+15
2.160408244e+15
2.27236918e+15
2.280500422e+15
2.257357658e+15
2.396214239e+15
2.40184356e+15
2.234214895e+15
2.252353817e+15
2.73960281e+15
2.226083653e+15
2.33929555e+15
2.288631663e+15
2.26799082e+15
2.682058642e+15
2.708954286e+15
2.20106445e+15
2.368067635e+15
2.222330773e+15
2.629518314e+15
2.408098361e+15
2.021551663e+15
4.60978829e+14
2.182925527e+14
3.440140515e+14
6.417425761e+14
7.017886651e+14
7.205530679e+14
8.550312881e+14
1.098343044e+15
1.195917939e+15
1.144628571e+15
1.361044684e+15
1.219686183e+15
1.306002436e+15
1.695676534e+15
1.529298829e+15
2.162910164e+15
1.818896112e+15
1.677537611e+15
1.711939016e+15
1.893328244e+15
1.620618923e+15
1.723197658e+15
2.13664e+15
2.227334614e+15
1.988401218e+15
2.040941546e+15
2.020926183e+15
2.168539485e+15
2.087852553e+15
2.588862108e+15
2.154778923e+15
2.487534333e+15
2.500043934e+15
2.249226417e+15
2.039065105e+15
2.823417143e+15
2.412476721e+15
2.365565714e+15
2.147273162e+15
2.651410117e+15
2.33867007e+15
2.277998501e+15
5.548008431e+14
2.677054801e+14
4.115659016e+14
6.974103044e+14
9.069461358e+14
9.651157845e+14
1.035169555e+15
1.188412178e+15
1.294118314e+15
1.431723934e+15
1.496148384e+15
1.752595222e+15
1.421090773e+15
1.574333396e+15
1.556194473e+15
2.034061265e+15
1.678788571e+15
1.837660515e+15
2.142269321e+15
1.932733489e+15
2.705826885e+15
2.363063794e+15
1.925853208e+15
1.883320562e+15
2.319905667e+15
2.081597752e+15
1.997157939e+15
2.044694426e+15
1.728826979e+15
2.060331429e+15
2.503171335e+15
2.331789789e+15
2.285504262e+15
2.503171335e+15
2.20294089e+15
1.999034379e+15
1.827652834e+15
1.842038876e+15
2.085976112e+15
2.147273162e+15
2.156655363e+15
2.282376862e+15
9.14451897e+14
4.997585948e+14
5.723142857e+14
8.331394848e+14
7.956106792e+14
8.168770023e+14
1.169647775e+15
9.15077377e+14
9.738725059e+14
1.090837283e+15
1.374805246e+15
1.93711185e+15
1.688170773e+15
1.550565152e+15
1.708811616e+15
2.158531803e+15
1.760100984e+15
1.925227728e+15
2.242346136e+15
2.426237283e+15
2.007165621e+15
1.662526089e+15
1.727576019e+15
2.052200187e+15
1.979019016e+15
2.27236918e+15
2.20606829e+15
1.888324403e+15
1.823899953e+15
1.945868571e+15
2.209195691e+15
2.281751382e+15
2.744606651e+15
2.257983138e+15
2.097234754e+15
2.020926183e+15
1.833907635e+15
1.685043372e+15
1.771359625e+15
1.902710445e+15
1.743838501e+15
2.079095831e+15
6.448699766e+14
1.964007494e+14
3.996817799e+14
5.153955972e+14
6.548776581e+14
9.95138829e+14
9.21332178e+14
8.393942857e+14
9.68243185e+14
1.086458923e+15
1.340403841e+15
1.379809087e+15
1.60310548e+15
1.317886557e+15
1.673784731e+15
2.019049742e+15
1.583090117e+15
2.256732178e+15
2.229836534e+15
2.842181546e+15
2.017173302e+15
1.915220047e+15
2.029057424e+15
2.191056768e+15
2.318654707e+15
2.222330773e+15
2.900351194e+15
2.625765433e+15
2.173543326e+15
2.249226417e+15
2.351805152e+15
2.60137171e+15
2.361812834e+15
2.414978642e+15
2.187303888e+15
2.555086183e+15
2.149775082e+15
1.892077283e+15
1.718193817e+15
2.105991475e+15
1.896455644e+15
2.032184824e+15
2.914737237e+14
3.021068852e+14
6.992867447e+14
9.188302576e+14
9.901349883e+14
1.214682342e+15
1.017656112e+15
1.311631756e+15
1.157138173e+15
1.630626604e+15
1.383561967e+15
1.695051054e+15
1.690672693e+15
1.910216206e+15
1.903961405e+15
1.879567681e+15
1.898332084e+15
2.209195691e+15
2.109118876e+15
2.384330117e+15
2.47314829e+15
2.105365995e+15
2.224207213e+15
2.416855082e+15
2.343048431e+15
2.531943419e+15
2.73710089e+15
2.648282717e+15
2.47002089e+15
2.541325621e+15
2.501294895e+15
2.626390913e+15
2.660792319e+15
2.689564403e+15
2.60449911e+15
2.93975644e+15
2.902853115e+15
2.700197564e+15
2.902853115e+15
2.797146979e+15
2.705826885e+15
2.774004215e+15
1.407955691e+15
1.157763653e+15
1.260342389e+15
1.678163091e+15
1.824525433e+15
1.885197002e+15
2.261736019e+15
2.037188665e+15
2.525063138e+15
2.020300703e+15
2.408723841e+15
3.279392131e+15
2.588862108e+15
3.241863326e+15
2.918490117e+15
2.914737237e+15
2.800274379e+15
3.128651429e+15
2.836552225e+15
2.577603466e+15
3.877351101e+15
3.800417049e+15
3.224349883e+15
3.06923082e+15
3.022319813e+15
3.07173274e+15
3.517700047e+15
4.420893302e+15
3.767892084e+15
2.945385761e+15
3.26875897e+15
3.478294801e+15
3.483924122e+15
3.320048337e+15
3.213716721e+15
3.629035504e+15
3.502688525e+15
4.20697911e+15
4.369603934e+15
4.235125714e+15
4.94004178e+15
3.396982389e+15
1.817645152e+15
1.969011335e+15
1.554318033e+15
1.984648337e+15
1.648140047e+15
2.691440843e+15
2.583232787e+15
4.159442623e+15
2.926621358e+15
2.859069508e+15
3.189322998e+15
4.168199344e+15
4.575386885e+15
3.631537424e+15
3.572742295e+15
3.716602717e+15
3.80792281e+15
4.466553349e+15
3.350071382e+15
4.307055925e+15
4.592900328e+15
4.314561686e+15
4.635432974e+15
3.763513724e+15
3.829814614e+15
4.322067447e+15
4.74239007e+15
4.379611616e+15
4.917524496e+15