/*--------------------------------*- C++ -*----------------------------------*\
| =========                 |                                                 |
| \\      /  F ield         | OpenFOAM: The Open Source CFD Toolbox           |
|  \\    /   O peration     | Version:  v1706                                 |
|   \\  /    A nd           | Web:      www.OpenFOAM.com                      |
|    \\/     M anipulation  |                                                 |
\*---------------------------------------------------------------------------*/
FoamFile
{
    version     2.0;
    format      ascii;
    class       volScalarField;
    location    "3.989";
    object      SOFP_O2;
}
// * * * * * * * * * * * * * * * * * * * * * * * * * * * * * * * * * * * * * //

dimensions      [0 0 0 0 0 0 0];


internalField   nonuniform List<scalar> 
50792
(
9642934200
8.153297768e-05
4.405346392e-05
1.877624827e-05
3.58519875e-05
3.032544921e-05
5.869649828e-05
3.636004494e-05
4.238484954e-05
2.878333269e-05
4.877959312e-05
7.125884199e-05
4.851730326e-05
3.940891798e-05
0.0001218673798
9.385814466e-05
7.174405612e-05
0.0001003156646
0.0001253550609
0.0001115688712
0.000156125849
0.000115568402
9.008033656e-05
0.0001124225604
0.000131390963
0.0001098847111
0.0001370991771
9.455070059e-05
0.0001044107314
9.484304718e-05
0.0001393390228
0.0001015891199
0.0001273367702
0.0001815051017
9.723416668e-05
0.000161571463
0.0001650548764
0.0001079106369
0.0001518403014
0.0002053910648
0.0001795264892
0.0001612124968
7.559854963e+10
4.887438721e+10
6.479969965e-06
4.868139637e-05
2.790223805e-05
0.0001004228557
3.494375044e-05
5.752516386e-05
0.0001053264241
5.595305171e-05
6.162842218e-05
4.889617673e-05
7.670005235e-05
7.213961273e-05
6.061136172e-05
6.425225541e-05
7.847261838e-05
6.414528752e-05
8.700463383e-05
6.997810175e-05
8.710117845e-05
7.418056661e-05
0.0001132300668
8.793639368e-05
7.257111267e-05
9.471708923e-05
4.779815692e-05
8.016397679e-05
8.778994515e-05
8.08934259e-05
7.06771608e-05
8.652880154e-05
0.0001012075242
0.0001106861595
8.471171927e-05
6.579884869e-05
0.0001045576125
0.0001136309606
9.761368083e-05
0.0001043911707
0.000107581694
0.0001319303948
3.384573768e-06
1.982602406e-05
3.377676199e-05
3.378419937e-05
3.595065733e-05
3.799597767e-05
8.221819489e-05
3.574948206e-05
7.568257925e-05
4.850439251e-05
3.689151489e-05
5.56394072e-05
5.116560803e-05
6.261302231e-05
7.634755577e-05
8.338849205e-05
8.061991109e-05
6.788019682e-05
5.606368588e-05
6.795966121e-05
8.556527028e-05
8.378097892e-05
8.37154835e-05
9.953946959e-05
0.0001054376799
0.0001600664873
8.974794158e-05
7.627478531e-05
8.763269093e-05
0.0001178862019
0.0001071642534
0.0001403461314
0.0001044785981
9.453457034e-05
8.954558166e-05
7.567380293e-05
6.654879994e-05
8.17310906e-05
0.0001173380183
0.000122421121
9.054788472e-05
0.0001139027186
1.456611137e+10
3.217035719e+10
2.191902621e-05
4.136364384e-05
4.099137167e-05
0.0001195283916
2.238159072e-05
5.896081487e-05
4.465929168e-05
2.420042185e-05
4.250746767e-05
6.458386048e-05
3.135954027e-05
6.027201824e-05
5.025791459e-05
7.448938016e-05
7.416655857e-05
6.051109754e-05
7.929823486e-05
0.0001084887999
8.03342855e-05
9.809959714e-05
8.704572704e-05
8.574080947e-05
8.57534615e-05
9.061270977e-05
7.797981722e-05
0.0001013492132
8.8075339e-05
9.655961407e-05
0.0001083373358
0.0001224437721
0.0001098129742
7.183819826e-05
7.685858003e-05
7.733834051e-05
9.031693144e-05
9.858786342e-05
8.693332055e-05
9.413990675e-05
0.0001061432808
0.0001133230977
2.247187773e+10
3.423812249e-05
3.140362529e-05
3.635251077e-05
8.123691829e-05
6.651305808e-05
5.255657069e-05
3.409300598e-05
5.210740961e-05
6.060213122e-05
6.145088464e-05
6.653723524e-05
4.832157353e-05
6.491183967e-05
5.706049497e-05
6.880364149e-05
6.123845633e-05
6.765777785e-05
7.771461777e-05
5.622619926e-05
0.0001017519388
9.26251454e-05
9.095297477e-05
9.537673883e-05
9.842163049e-05
0.0001234616087
0.000102636658
8.28711313e-05
6.868385547e-05
9.265536473e-05
0.0001220925442
9.878860312e-05
9.158285155e-05
0.0001041422895
7.190225631e-05
0.0001106534135
8.414620524e-05
0.0001010588814
8.378005815e-05
7.841631053e-05
8.269081579e-05
0.0001467041471
7.154892672e-06
4.268503889e+10
7.058025994e+10
4.101283265e-05
2.390628572e-05
4.84271788e-05
3.382718848e-05
4.535882624e-05
4.350455773e-05
5.77735521e-05
5.025301364e-05
4.082898716e-05
3.611231455e-05
4.100429344e-05
5.8274639e-05
4.491844368e-05
5.874489e-05
7.850209447e-05
4.583181613e-05
6.462658361e-05
5.735684063e-05
0.0001029240951
8.252876319e-05
7.420782901e-05
9.594582933e-05
7.35706646e-05
8.322854343e-05
8.711530795e-05
9.450717748e-05
9.641021603e-05
7.408103702e-05
8.181833013e-05
7.880979207e-05
7.973448068e-05
9.179598463e-05
8.824323952e-05
8.544991499e-05
9.044151917e-05
8.180874344e-05
7.253024567e-05
0.0001045442575
8.309120024e-05
1.192288152e+11
9.114396597e-06
1.151526076e-05
3.064755273e-05
1.451216667e-05
3.144938814e-05
2.165182338e-05
2.325088745e-05
3.82387108e-05
4.1900906e-05
5.132327421e-05
4.452222851e-05
4.676667022e-05
4.981788574e-05
6.343691296e-05
6.762304625e-05
7.554863984e-05
9.266902268e-05
0.0001010007886
8.44061825e-05
0.0001025369092
7.668250742e-05
6.529214547e-05
8.203505302e-05
7.898449141e-05
8.698226369e-05
8.108794869e-05
8.005593744e-05
8.548066084e-05
6.270796685e-05
4.77760141e-05
6.126806566e-05
7.357452549e-05
5.952590744e-05
0.0001030731371
9.245324642e-05
6.88188973e-05
0.0001084603236
0.0001016579016
9.444567736e-05
0.0001089042327
0.0001154236313
1.581347201e+10
3.269660029e+10
3.427209611e-05
4.482613834e-05
6.489423658e-05
3.663144043e-05
3.929226838e-05
5.860159074e-05
6.915552613e-05
6.937673395e-05
5.270094303e-05
0.0001529033122
8.396954854e-05
0.0001189173977
9.3634654e-05
8.659643632e-05
9.718441031e-05
9.385627623e-05
7.752275562e-05
8.790461978e-05
0.0001059788808
0.0001025427772
0.0001300210185
9.221834232e-05
9.951110036e-05
0.0001443569836
8.495031781e-05
6.790727482e-05
6.396159058e-05
6.929503077e-05
0.0001287551452
8.679430902e-05
9.853431884e-05
7.949060874e-05
7.164737641e-05
9.641101753e-05
8.390873749e-05
8.877695927e-05
6.862958835e-05
9.738929588e-05
9.130222445e-05
8.166112442e-05
1.692853473e+10
6.232364623e+10
1.907126341e-05
2.751209831e-05
3.579032939e-05
5.362151288e-05
3.596333869e-05
4.055865178e-05
9.505267794e-05
5.861712341e-05
8.17055758e-05
3.891098212e-05
0.0001803427675
8.315700228e-05
7.356319871e-05
8.853713241e-05
0.0001192587838
0.0002025417443
9.127203922e-05
8.715029172e-05
9.936213782e-05
8.881325135e-05
6.927421982e-05
8.594867513e-05
7.340615539e-05
9.189607543e-05
9.199114512e-05
0.0001161877793
8.391904188e-05
0.0001219089632
0.000213323844
9.63226048e-05
9.866293093e-05
0.0001064718216
0.000111774335
0.0001508099763
8.709995241e-05
0.0001344727675
7.214696752e-05
6.804808056e-05
8.861813296e-05
6.179815554e-05
1.138637756e+10
4.59089982e+10
1.228418241e-05
6.249991059e-05
4.161980649e-05
6.028342091e-05
2.97280356e-05
4.413921842e-05
8.120447817e-05
4.42329124e-05
5.649296012e-05
6.292653026e-05
5.602595693e-05
5.102330144e-05
4.651568105e-05
7.378407705e-05
4.233572056e-05
0.0001042053813
6.023465152e-05
5.343343526e-05
7.950410207e-05
4.903616904e-05
4.731561985e-05
5.270204612e-05
9.712201323e-05
8.354243575e-05
8.104507502e-05
8.778322408e-05
9.802060755e-05
0.0001292383379
6.590230888e-05
7.034588403e-05
7.647696693e-05
0.0001272917483
7.998827545e-05
9.315710966e-05
6.766603742e-05
6.257901102e-05
8.269372378e-05
6.514722074e-05
8.978774302e-05
9.422849226e-05
1.420860639e+10
0
1.638487718e-05
7.62434283e-06
2.734510789e-05
3.842838079e-05
3.34683843e-05
2.894248244e-05
5.946988197e-05
8.106324055e-05
4.12715848e-05
8.86748143e-05
6.681143167e-05
6.430514828e-05
8.259223247e-05
5.359192912e-05
7.806657903e-05
7.706984991e-05
6.69518838e-05
5.765868888e-05
9.092159315e-05
0.0001075589071
9.604125274e-05
6.880351505e-05
7.978229092e-05
8.99561171e-05
7.677102333e-05
8.530643571e-05
9.157833704e-05
8.698353735e-05
6.813205478e-05
6.402894501e-05
7.664193308e-05
6.573805198e-05
8.34031137e-05
7.371394653e-05
6.820960522e-05
7.990571235e-05
8.389028166e-05
8.080594451e-05
7.259758972e-05
6.922708047e-05
1.077938943e+10
1.573984215e-05
5.965454899e-06
4.19584435e-05
5.348313032e-05
7.026920044e-05
3.221630699e-05
4.878300079e-05
7.007042954e-05
0.0001201332082
0.0001365694103
7.087957771e-05
8.256472653e-05
0.0001146230649
5.003059529e-05
0.0001179853466
0.0001172792079
8.294190646e-05
8.837289692e-05
0.0001101293085
9.112577064e-05
8.052073121e-05
0.0001048220897
8.225747938e-05
0.0001000038882
0.0001016233517
9.030485845e-05
0.0001249279633
8.507368452e-05
9.2177906e-05
8.906434059e-05
8.273731241e-05
0.0001142892576
9.915110395e-05
6.876654969e-05
0.0001401732651
0.0001433305371
9.777861005e-05
7.238500024e-05
0.000109424127
0.0001277060728
0.0001102606717
3.131145266e-05
7.778048612e-06
1.188031155e-05
4.018129661e-05
5.0009813e-05
2.921352417e-05
7.322967845e-05
7.392354801e-05
3.189227945e-05
4.289460888e-05
5.475381287e-05
6.116906678e-05
8.613569452e-05
6.780061176e-05
6.272607297e-05
9.162506745e-05
7.613835967e-05
6.965158879e-05
0.0001010446753
0.0001288506292
6.889529254e-05
0.0001083185045
0.0001286777715
7.445950672e-05
9.482435561e-05
0.000106268172
0.0001289214943
0.0001087064721
9.985636439e-05
0.0001073984298
0.0001549423559
0.0001319728951
0.000198678512
0.0001889718972
0.0001511610957
0.0001608777989
0.0001370131754
8.728193847e-05
9.348927508e-05
0.0001013016341
7.558810568e-05
0.0001493526075
1.969629764e+11
4.25578061e-05
5.407524916e-05
5.202496744e-05
9.638877728e-05
7.549895462e-05
5.197786578e-05
5.062800836e-05
7.354134614e-05
8.498848276e-05
5.464366716e-05
6.055730555e-05
9.139780362e-05
4.532498699e-05
6.364968758e-05
9.148701481e-05
9.081229152e-05
7.286065224e-05
0.0001049261939
9.411235529e-05
0.0001065645146
7.356429589e-05
0.0001061748156
9.704594667e-05
0.0001162632319
0.0001202750451
8.259569058e-05
9.25069033e-05
0.0001301795629
9.025167685e-05
0.0001250535419
0.0001372694306
0.0001233008296
9.035532489e-05
0.000104067403
0.0001367153442
8.811285109e-05
0.000146414342
0.0001201152505
0.0001007945547
8.763587936e-05
6.627839278e-05
2.155555851e+11
6.587510794e-05
7.011207469e-05
5.643203972e-05
9.360025448e-05
7.205712814e-05
7.641953735e-05
5.922064161e-05
0.0001121935921
4.501021502e-05
5.59013802e-05
4.618590551e-05
9.061163568e-05
8.670696541e-05
5.572514001e-05
3.724869677e-05
6.571973469e-05
7.447940541e-05
6.6543413e-05
7.28811637e-05
7.668287285e-05
6.897214589e-05
9.405374805e-05
0.0001599415034
9.444275568e-05
9.992038492e-05
8.862396589e-05
8.265998507e-05
7.898776261e-05
6.9471111e-05
8.249305686e-05
8.166463992e-05
0.0001098932413
0.0001265852528
0.0001753266086
8.105457079e-05
0.0001017417295
9.565593628e-05
0.0001100918713
9.516817109e-05
0.0001130911174
0.0001050003143
3.5118885e+10
5.084955913e+10
7.170362329e+10
8.99794625e-05
2.173197077e-05
1.493852551e-05
2.583872673e-05
3.872807848e-05
7.736539121e-05
4.070722746e-05
6.854101728e-05
8.837958419e-05
0.0001051060678
5.4137397e-05
8.324378082e-05
9.92750368e-05
6.755953092e-05
6.379918632e-05
8.50695349e-05
8.378976034e-05
9.996127147e-05
9.201687576e-05
9.658236461e-05
9.423550843e-05
8.531474599e-05
9.083499152e-05
8.343232133e-05
8.476631803e-05
8.163721788e-05
8.82031409e-05
6.391024416e-05
6.302970997e-05
7.488861861e-05
7.438821101e-05
7.018695553e-05
0.0001037205083
9.805281514e-05
7.902231255e-05
9.021274427e-05
8.644059486e-05
0.0001187040489
7.222239064e-05
3.077057842e+10
3.388566787e+10
1.885270497e-05
3.338029615e-05
5.408604307e-05
7.298013883e-05
4.477302703e-05
9.703285366e-05
5.064812524e-05
7.648592316e-05
9.934815983e-05
6.209967457e-05
7.650499713e-05
6.644957498e-05
0.0001039866187
8.380863524e-05
7.694677426e-05
8.091040548e-05
0.0001076334481
8.271082246e-05
8.482280026e-05
9.335078654e-05
8.107461891e-05
0.0001076881865
0.0001215242229
8.895640385e-05
0.0001219370127
0.0001163164735
0.0001152428536
8.913148868e-05
8.385663745e-05
0.0001339362852
8.375484951e-05
0.0001036791988
0.0001358386944
0.0001053645495
9.607292435e-05
0.0001200482487
0.0001245212139
0.0001260083049
0.0001000255494
9.512247055e-05
7.156447464e+10
1.206238207e-05
2.541152255e-05
4.46924905e-05
5.365704298e-05
4.992708164e-05
4.248343701e-05
5.217180741e-05
4.162848668e-05
6.383431294e-05
4.714581479e-05
6.595844754e-05
5.553760651e-05
5.523066898e-05
5.676139216e-05
9.13190399e-05
6.715307369e-05
9.658304635e-05
7.640942196e-05
6.363446677e-05
7.087613071e-05
6.785455562e-05
5.975974824e-05
7.009490384e-05
0.0001230118669
7.893995458e-05
0.0001068111738
6.762470219e-05
0.0001055923099
9.307738426e-05
7.018909186e-05
0.0001002110804
9.337550414e-05
9.37247033e-05
9.832197152e-05
0.0001036838476
0.00010777751
7.079923134e-05
6.877950564e-05
0.0001396329683
8.480917814e-05
0.00010791309
3.044410669e+10
7.598086377e+10
2.443484935e-05
4.134277244e-05
4.846853407e-05
3.401417062e-05
3.535888831e-05
5.2914034e-05
5.053585568e-05
6.21074038e-05
6.317055135e-05
5.071709103e-05
8.765034861e-05
8.009066922e-05
6.265980675e-05
5.724233424e-05
8.54864854e-05
0.0001023977358
9.535858659e-05
6.385193976e-05
7.735511383e-05
0.000105705908
8.231131994e-05
0.0001228341707
9.866144157e-05
9.364513526e-05
9.385990704e-05
8.886177509e-05
9.787514097e-05
9.670713247e-05
0.0001052904762
9.846807766e-05
8.021856292e-05
7.119169135e-05
8.610713762e-05
6.411666703e-05
8.342035302e-05
7.425506783e-05
8.637917597e-05
8.033847593e-05
7.193096384e-05
0.000100559992
3361011204
4.230059199e+10
4.923996632e-05
4.80427677e-05
2.47930052e-05
3.939417421e-05
4.998253028e-05
9.792985445e-05
0.0001058952838
5.646329371e-05
9.112982343e-05
7.813694356e-05
6.166620327e-05
5.979862259e-05
7.208432722e-05
7.872908058e-05
0.0001031422082
6.225991318e-05
7.219418454e-05
9.639762237e-05
7.449359661e-05
9.238021805e-05
0.0001289525628
0.0001118299514
9.290899498e-05
6.840535166e-05
6.608440646e-05
0.0001043377539
6.739617775e-05
5.992937459e-05
7.949866108e-05
6.001927244e-05
7.090395471e-05
7.753857475e-05
8.595065972e-05
0.0001113392127
9.049684754e-05
8.369682653e-05
9.223179936e-05
9.881327751e-05
7.633343787e-05
7.949317223e-05
3.012675767e-05
2.398513924e-05
1.484279012e-05
3.862512017e-05
4.159715268e-05
2.889004842e-05
4.477489065e-05
3.059082275e-05
4.839571133e-05
0.0001316289122
0.0001346677757
6.57965272e-05
8.204781876e-05
8.713624664e-05
8.682669991e-05
8.413334347e-05
0.000102255649
0.0001055204244
0.000105293882
0.0001049794904
0.000100815231
0.0001124934395
0.0001137234764
7.200468906e-05
9.98302441e-05
8.135721777e-05
7.815169984e-05
8.49223947e-05
0.0001069073323
9.86614845e-05
0.0001137657911
0.0001043473788
6.454619555e-05
6.280320868e-05
5.553421257e-05
9.216038811e-05
8.691501384e-05
9.922215426e-05
0.0001070262966
9.722368857e-05
8.736486235e-05
5.363904998e-05
1.534875853e+10
2.626888577e-05
2.968052339e-05
7.811348379e-06
1.691112756e-05
2.529475695e-05
4.092760996e-05
4.620688392e-05
3.022759342e-05
4.173458384e-05
5.93549004e-05
0.0001097420285
7.369653099e-05
0.0001024765013
5.024379536e-05
7.615383299e-05
6.904649274e-05
7.975504311e-05
7.327440391e-05
6.916089199e-05
5.228492929e-05
6.838319688e-05
6.545818867e-05
0.0001130177714
6.851676172e-05
0.0001016776404
9.080109975e-05
9.267490677e-05
7.862761921e-05
8.602167594e-05
9.333567438e-05
8.944808487e-05
0.0001085619852
0.0001450231124
0.0001149569132
0.000103689459
8.267551341e-05
6.566226161e-05
4.706539104e-05
5.708055909e-05
6.363168983e-05
6.592941671e-05
0
2.009561773e-06
2.080788332e-05
1.849283634e-05
3.399751121e-05
2.244668904e-05
1.464456819e-05
4.81004255e-05
5.477862763e-05
3.423496287e-05
7.556028598e-05
6.975641884e-05
6.359958029e-05
5.54996285e-05
5.780201173e-05
6.154972568e-05
0.0001021562602
5.269957689e-05
6.14226982e-05
9.490176079e-05
8.498658158e-05
8.810283967e-05
0.0001175481315
9.296783823e-05
0.0001167909271
9.375339492e-05
8.755955814e-05
8.980882086e-05
8.232428718e-05
6.836741007e-05
8.702456975e-05
0.0001200008805
0.0001052104787
0.0001296348887
0.0001244422871
9.625752158e-05
0.0001156367564
9.412310235e-05
9.561691931e-05
7.714433659e-05
7.491156209e-05
8.124754459e-05
3.191846001e-05
4.034869931e-05
5.805969882e-05
3.017254003e-05
2.327223042e-05
7.949909747e-05
8.161813152e-05
5.870341432e-05
3.309806395e-05
3.186331714e-05
6.427808239e-05
5.891789877e-05
9.087708124e-05
6.675516222e-05
6.600707724e-05
9.972158737e-05
8.679984193e-05
0.0001207496518
7.088773713e-05
7.035793751e-05
7.552741308e-05
6.182965724e-05
8.439397819e-05
9.908935073e-05
6.805607634e-05
8.809198498e-05
7.624868137e-05
7.711353783e-05
7.187415656e-05
8.034834523e-05
9.910331382e-05
0.0001003472789
0.0001092019296
0.0001459539704
8.61452394e-05
8.215956224e-05
7.82294481e-05
8.1838779e-05
0.0001111022839
7.711397998e-05
7.581658572e-05
7.224290071e-05
3.219834729e+11
3.183271142e+10
3.627411245e+10
2.137885296e-05
5.451277835e-05
5.16753714e-05
5.133582055e-05
6.22507011e-05
4.788047766e-05
3.743442647e-05
4.957214324e-05
4.317301049e-05
5.310918858e-05
7.84380562e-05
7.718167686e-05
7.890515906e-05
8.087710798e-05
7.928184904e-05
6.780656152e-05
7.184287695e-05
9.318424509e-05
9.947976823e-05
7.88134419e-05
7.888293307e-05
8.151091478e-05
8.780027107e-05
0.0001080240514
9.60942457e-05
7.110596392e-05
7.926192073e-05
9.689375651e-05
5.466881193e-05
5.676648171e-05
0.0001177217948
0.0001156844154
4.071167816e-05
7.708926815e-05
6.191171418e-05
8.503267506e-05
7.59493924e-05
7.441725899e-05
5.937006771e-05
3.554133823e+11
2.568849999e+10
1.974730356e-05
2.663345257e-05
2.911698437e-05
4.258737628e-05
2.824572547e-05
7.568541021e-05
2.922897311e-05
3.368660078e-05
0.0001052210371
4.247398812e-05
6.19011858e-05
7.147245172e-05
6.973370548e-05
6.159874653e-05
9.097198557e-05
7.936284185e-05
6.350178117e-05
0.0001190349626
8.972582154e-05
4.518285596e-05
8.427532777e-05
7.673837403e-05
6.989681288e-05
0.0001004734059
7.227448083e-05
9.303279202e-05
8.519589185e-05
6.861849856e-05
8.150891483e-05
8.601821429e-05
5.914845212e-05
6.340286457e-05
9.571501604e-05
8.846202777e-05
8.43027449e-05
8.42332433e-05
5.958807842e-05
6.878315178e-05
9.251525393e-05
6.352608019e-05
7.197881546e+10
5.332834215e+10
4.128022007e-05
2.875470731e-05
5.732600525e-05
3.429306782e-05
6.756392457e-05
0.0001193970283
5.367908084e-05
6.697316074e-05
6.976749139e-05
7.983502397e-05
7.728919077e-05
7.468844002e-05
5.667973073e-05
7.323266327e-05
6.574391396e-05
6.721974962e-05
6.357709617e-05
7.256030802e-05
6.303924784e-05
7.902589918e-05
6.117386337e-05
7.130052345e-05
6.971275484e-05
4.636679209e-05
5.599039946e-05
7.978048256e-05
8.379314256e-05
0.0001014758173
0.0001038059018
8.980822261e-05
8.870619937e-05
0.0001009308264
8.874876236e-05
0.0001003772566
6.779290609e-05
0.0001030581259
4.912575239e-05
6.90328435e-05
5.866306213e-05
8.139198128e-05
5.162788775e+10
1.42270885e+10
3.316477293e-05
3.417769173e-05
5.755781439e-05
7.533010711e-05
6.054561555e-05
0.0001079120937
0.0001117714925
0.0001109341281
0.0001149823701
8.176483222e-05
6.047394098e-05
9.434260927e-05
0.0001154653891
8.27202899e-05
8.879918761e-05
8.198804339e-05
8.912742221e-05
8.014761349e-05
8.995491726e-05
9.937154586e-05
7.433831257e-05
9.379135615e-05
0.0001210837329
0.000104904583
0.0001221426308
0.0001417211009
0.0001045473751
9.993031099e-05
7.298885175e-05
9.231797199e-05
9.971817382e-05
0.0001207997857
0.0001000868242
0.0001308378386
8.019089849e-05
7.736353419e-05
9.821281407e-05
8.419548593e-05
8.681089694e-05
6.344331932e-05
2.079786547e+11
2.618476488e+10
4.911008449e-05
5.172359691e-05
4.504542645e-05
7.63696371e-05
6.017813809e-05
3.984506465e-05
2.919523493e-05
5.362614298e-05
6.774308755e-05
6.497125928e-05
7.397659287e-05
6.585639924e-05
8.303469542e-05
7.539592207e-05
6.818532914e-05
6.425942281e-05
6.247360739e-05
6.550698877e-05
6.38365359e-05
5.10089569e-05
6.394228623e-05
9.525449418e-05
8.10898094e-05
9.171487146e-05
0.0001253061149
0.0001016908897
8.544775774e-05
6.052698212e-05
8.740280128e-05
0.0001024244002
7.803115898e-05
4.587774146e-05
7.893523196e-05
8.497452237e-05
0.0001087140163
8.093609984e-05
0.0001067740995
0.000122012619
0.0001089626134
0.0001375827981
2.521426784e-05
2.33541324e-05
2.813221612e-05
2.407208269e-05
7.821834885e-05
4.361770459e-05
4.669915636e-05
3.784143637e-05
3.566612734e-05
5.236638451e-05
0.0001305926253
4.658336876e-05
5.357919319e-05
5.589225262e-05
6.673417667e-05
7.239317684e-05
8.137973228e-05
7.509498118e-05
7.967524585e-05
6.98472689e-05
7.55670241e-05
6.585580221e-05
6.214488219e-05
8.174241861e-05
9.007128033e-05
0.0001479844911
6.851500174e-05
5.221146218e-05
4.990432666e-05
7.168305748e-05
9.109058411e-05
7.864750904e-05
8.375908381e-05
7.537900553e-05
8.294302908e-05
0.0001120761823
9.208599285e-05
9.042924799e-05
7.711595873e-05
9.970400711e-05
6.174490466e-05
4.746318259e-05
1.411259216e+11
7.020693347e-06
2.192989178e-05
4.740799769e-05
4.867994635e-05
2.492297964e-05
5.206831931e-05
3.613729429e-05
5.148994152e-05
4.888680089e-05
5.257358314e-05
7.241406157e-05
7.285445175e-05
7.669135256e-05
6.857844425e-05
8.479883415e-05
7.584679601e-05
9.247245929e-05
8.570613662e-05
9.255862479e-05
7.437081224e-05
7.870885302e-05
8.178212206e-05
9.675403317e-05
0.0001409927054
8.592376849e-05
9.427718957e-05
7.822363204e-05
8.216612132e-05
0.0001098197884
0.0001193951486
6.456373767e-05
9.973726795e-05
9.006596254e-05
0.0001036917497
0.0001093255556
7.467980653e-05
8.183480445e-05
0.0001259867198
0.0001217227439
0.0001004167694
9.70275766e-05
1.495680099e+11
3.775413785e-05
1.119703947e-05
2.73098301e-05
5.463478326e-05
3.330642327e-05
2.907327875e-05
5.462817824e-05
2.248781583e-05
2.722290954e-05
5.480821202e-05
4.609103557e-05
6.50477419e-05
6.487085082e-05
5.281967826e-05
5.868475943e-05
5.186783459e-05
6.329601916e-05
5.805285729e-05
6.916857287e-05
7.638654068e-05
7.315023318e-05
8.258145797e-05
9.256268738e-05
6.987176466e-05
6.634981548e-05
6.87923523e-05
0.0001037664959
6.625588335e-05
7.138752204e-05
7.964475244e-05
8.528453261e-05
0.0001014292522
8.975841821e-05
9.800721398e-05
6.01762641e-05
6.893130239e-05
9.692403253e-05
7.066917051e-05
0.0001031156475
8.801098253e-05
5.637182537e-05
1.05354083e-05
3.785342461e-05
2.589851208e-05
4.248663977e-05
3.267696067e-05
2.068020827e-05
5.824668743e-05
4.889462533e-05
2.413346639e-05
4.668809409e-05
5.937463793e-05
5.114766437e-05
4.92972503e-05
6.731477876e-05
5.68563899e-05
7.187024792e-05
8.489688861e-05
5.652909146e-05
8.138322467e-05
8.800947539e-05
0.0001113049381
9.472288017e-05
0.0001219354504
8.081381038e-05
8.65215915e-05
0.0001205361286
0.0001511615069
8.19402342e-05
8.899368731e-05
7.74577608e-05
6.811064202e-05
9.663330712e-05
9.696782314e-05
7.876441029e-05
9.957244964e-05
0.0001024367224
0.0001440368966
0.0001267603444
9.684202134e-05
9.258222715e-05
0.000107255441
0.0001085707304
8.100661835e+10
8.872905737e-06
4.786630095e+10
3.716751869e-05
1.567328023e-05
3.01158128e-05
3.03554699e-05
4.139908686e-05
5.747862224e-05
3.816992264e-05
5.396711215e-05
5.283307282e-05
5.410987895e-05
6.30989695e-05
6.306843839e-05
6.996829579e-05
7.379633929e-05
9.615756716e-05
9.158685785e-05
5.350466705e-05
7.82758802e-05
9.495306266e-05
8.415108283e-05
8.441264121e-05
9.691022752e-05
9.240336136e-05
0.0001047313588
8.669330841e-05
0.000124885672
8.746153854e-05
7.048317477e-05
7.689084225e-05
8.59003752e-05
0.000108465663
9.569633402e-05
9.838023262e-05
0.0001012169771
0.0001461924777
0.0001175438253
9.457399192e-05
7.357538867e-05
0.0001067452842
1.275658281e+10
1.24159762e-05
2.669620462e-05
4.262939868e-05
1.788845191e-05
8.350161728e-05
5.562782765e-05
4.4986017e-05
3.585413006e-05
4.188111929e-05
4.560578611e-05
5.556682748e-05
4.780959053e-05
2.720102864e-05
6.686173594e-05
6.13104725e-05
5.902122149e-05
6.979365398e-05
4.182029756e-05
8.41437846e-05
8.254644884e-05
0.0001059768178
7.831508142e-05
6.208336205e-05
6.496916186e-05
8.417319364e-05
8.85753096e-05
7.892895201e-05
6.743139108e-05
7.433851788e-05
5.879197947e-05
5.700832745e-05
7.292707414e-05
7.110696053e-05
5.059060306e-05
9.385970023e-05
9.081002966e-05
0.0001425545817
7.483167553e-05
7.818533163e-05
8.437632021e-05
6.863959568e-05
1.77726182e+10
1.786541427e-05
1.701305862e+10
1.412978611e-05
4.371509602e-05
5.785304407e-05
5.317087343e-05
4.479394215e-05
4.172976364e-05
5.885474023e-05
4.615271336e-05
8.591819103e-05
6.678910442e-05
7.641179251e-05
0.000104225942
8.484984245e-05
9.189170958e-05
6.788509687e-05
0.0001174487452
9.161539005e-05
5.637763928e-05
7.170737839e-05
6.459393597e-05
5.871277044e-05
6.438149027e-05
7.976719485e-05
6.806954908e-05
7.262589189e-05
7.869549822e-05
0.0001193118808
7.105806675e-05
7.27390346e-05
8.487919243e-05
0.0001230075416
8.633964206e-05
6.483299222e-05
6.795527502e-05
8.729994796e-05
0.0001238074561
0.0001180251907
0.000123070654
8.934212159e-05
7.452611194e+10
1.569819909e-05
5.020244359e-05
6.889626687e-05
9.645357298e-05
5.827815211e-05
5.480662863e-05
9.59450917e-05
5.537492008e-05
6.75065499e-05
8.092272733e-05
7.533053856e-05
8.08857523e-05
7.221887844e-05
9.068467488e-05
0.0001062672838
7.667662506e-05
6.934586109e-05
0.000111117471
5.506255567e-05
0.0001188482499
8.92905266e-05
0.0001272036792
9.818525974e-05
0.0001029965232
0.0001020064177
0.0001048097535
0.0001028359638
0.0001141010234
0.0001032813218
0.0001019434889
0.0001168381368
0.0001064478137
9.208588072e-05
8.942107217e-05
0.0001452864762
0.0001193151536
9.188755808e-05
0.0001122966086
8.634635316e-05
7.094983871e-05
8.441060925e-05
1.730287086e+11
3.213034397e-05
1.790645696e-05
4.262709302e-05
2.807623534e-05
4.32958351e-05
7.065712385e-05
4.534718739e-05
2.938427751e-05
4.119042259e-05
5.841944597e-05
5.271591776e-05
7.292729511e-05
4.071943342e-05
4.885936557e-05
6.136045719e-05
6.10330709e-05
5.70599511e-05
9.248309254e-05
5.175822546e-05
9.499246471e-05
9.768737862e-05
7.721406159e-05
0.0001021244838
9.381682477e-05
0.0001376622605
0.0001268242531
6.494537527e-05
0.0001041332621
0.0001003147149
0.000115180318
0.0001228636742
0.0001267455392
0.0001144262708
0.0001331012726
0.0001242566669
8.129390872e-05
9.155991078e-05
6.57671523e-05
8.502696528e-05
8.827260854e-05
0.0001096751276
1.159671476e+10
0
2.306569178e-05
2.613490828e-05
4.972537048e-05
5.965877569e-05
3.38954284e-05
6.481867365e-05
4.131306813e-05
5.447181586e-05
4.025873644e-05
3.955263943e-05
6.515509069e-05
5.893504215e-05
7.107833648e-05
7.975453112e-05
7.773078358e-05
0.0001080424123
6.836750363e-05
0.000118483085
9.14922124e-05
0.0001241012039
0.0001631768882
0.0001136873016
8.415487505e-05
0.0001005869658
0.0001228055212
8.117073624e-05
8.280928128e-05
0.000101996892
0.0001322861849
0.0001547799503
0.0001556094573
9.044998264e-05
9.115224983e-05
9.149713826e-05
8.097724789e-05
0.000102245765
0.0001115462493
6.925539338e-05
0.0001242279663
0.0001258102246
4.675086057e-06
3.167175154e-05
2.696438436e-05
1.996647143e-05
3.785803523e-05
5.232375099e-05
6.427951384e-05
4.332369348e-05
5.740737793e-05
4.33823924e-05
0.0001065609563
4.168019464e-05
7.11976381e-05
8.00574486e-05
9.774645715e-05
8.024406551e-05
6.18197523e-05
5.66398031e-05
5.443762099e-05
4.06270309e-05
9.400638104e-05
7.212059085e-05
6.583311144e-05
0.0001158959976
0.0001135268103
7.532731632e-05
6.960239806e-05
5.362213142e-05
7.178061142e-05
8.51658881e-05
7.865413234e-05
9.925431329e-05
0.0001035445716
0.0001014139048
0.0001368224051
0.000144963777
0.0001118937058
0.0001590965001
8.020175406e-05
0.0001229717754
9.030069785e-05
9.017457051e-05
2.85853697e+10
4.730116799e-05
8.3475945e-05
5.551638549e-05
5.04649048e-05
2.879334787e-05
5.117076578e-05
6.758311087e-05
5.897509024e-05
5.633759319e-05
7.328758361e-05
5.928248264e-05
4.904219719e-05
4.475677582e-05
6.91257593e-05
5.771098584e-05
5.861129564e-05
3.953372721e-05
5.653012277e-05
5.985164629e-05
6.473134582e-05
5.244615447e-05
7.88876699e-05
5.855043565e-05
5.886705038e-05
6.828617458e-05
7.496225145e-05
5.573988948e-05
5.629614225e-05
7.939945597e-05
5.076372294e-05
8.301940328e-05
9.528709095e-05
0.0001105915467
7.716015163e-05
5.880236424e-05
8.782704598e-05
7.989278242e-05
4.837178632e-05
8.971602576e-05
9.611016983e-05
0.0001616723748
0
3.942390535e+10
2.333507997e-05
3.939806384e-05
1.536698352e-05
1.527998805e-05
3.297953449e-05
5.20793042e-05
7.209376716e-05
3.176361575e-05
4.174160497e-05
4.365447151e-05
6.116555905e-05
7.830298356e-05
0.0001140239175
5.534328007e-05
9.545094898e-05
8.819989508e-05
0.0001078392841
6.671103283e-05
7.96377201e-05
6.3835739e-05
6.163141499e-05
5.636533252e-05
8.310890728e-05
0.0001346851196
0.0001314971917
0.0001960251124
0.0001561253569
0.0001091035877
0.0002154826751
0.0001323138536
0.0001272691192
0.0001814282917
0.0001139613252
0.0001329408345
9.112689972e-05
0.0001306568839
0.0001323098317
9.727055026e-05
0.0001406039486
0.0001658320643
3.073696023e+11
3.85974815e+11
8.632932518e-05
9.113258667e-05
0.000144359534
4.183167989e-05
2.105653973e-05
3.925721097e-05
7.407065516e-05
0.0001203708104
5.18447646e-05
8.936405655e-05
0.0001635485654
6.2743332e-05
8.796636366e-05
8.614203266e-05
0.0001031836357
7.587633076e-05
9.957217353e-05
0.0001092932318
0.0001187406752
0.0001058003208
0.0001046039615
0.0001725801972
0.000109943336
0.0001712818385
0.0001794002133
0.0001378925088
0.000144044763
0.0001773019168
0.0001872082641
0.000124093902
0.0001436687587
0.0001368010703
0.0001675610307
0.0001651882883
0.0001790643332
0.0001914918402
0.0001696561114
0.0001699157239
0.0001859468992
0.0001734907642
8.414658764e-05
3.124887269e-05
0.0001320567335
5.107750982e-05
0.0001275757299
0.0002445185542
0.000172128188
0.0002142227344
0.0001354478531
0.0002800433676
8.876044763e-05
0.0001307401539
0.00020031642
9.392646299e-05
7.682057686e-05
0.0001931593114
0.0001854813261
0.0001258381527
0.0001294232737
0.0001880279599
0.000134122236
0.0001424293002
0.0001358086335
0.0001391321472
0.0001554549233
0.0002450223395
0.0001489345086
0.0002583108699
0.0001307723633
0.0001224987099
0.0001513746374