/*--------------------------------*- C++ -*----------------------------------*\
| =========                 |                                                 |
| \\      /  F ield         | OpenFOAM: The Open Source CFD Toolbox           |
|  \\    /   O peration     | Version:  v1706                                 |
|   \\  /    A nd           | Web:      www.OpenFOAM.com                      |
|    \\/     M anipulation  |                                                 |
\*---------------------------------------------------------------------------*/
FoamFile
{
    version     2.0;
    format      ascii;
    class       volScalarField;
    location    "3.989";
    object      SOFP_mixture;
}
// * * * * * * * * * * * * * * * * * * * * * * * * * * * * * * * * * * * * * //

dimensions      [0 0 0 0 0 0 0];


internalField   nonuniform List<scalar> 
50792
(
9.046451072e+10
0.0001554303785
9.483905438e-05
0.0001038004259
0.0002159594174
0.0002093155076
0.0002296509096
0.0001991498966
0.0002545804179
0.0001495989934
0.0002451218735
0.00040282248
0.0002304579033
0.0001998053354
0.000451845736
0.0004508457108
0.000365128457
0.0005104176879
0.0004815392577
0.0003889890225
0.0004676003077
0.000535977642
0.0004817165847
0.0005988220436
0.000614402555
0.0005531695656
0.0004822820626
0.0004796324885
0.0005336686576
0.0004821141485
0.000683145011
0.0005940463141
0.0006745505567
0.0008133823834
0.0004653073353
0.0006565004798
0.0006387179526
0.0005233571338
0.0006515904492
0.0008555335443
0.0007766989029
0.0006646997491
1.42750341e+11
1.815911784e+11
2.90288862e-05
0.000124615671
8.059817392e-05
0.0002346957872
0.0001361133784
0.0001730693475
0.0002671573199
0.0002090157187
0.0002305084155
0.0001960103415
0.0003227649457
0.0003401110132
0.0002933321184
0.00031630387
0.0002820263165
0.0002997415556
0.0003328394804
0.0003020958266
0.0003696957129
0.000285902992
0.0004726710185
0.0004932275547
0.0004527749869
0.0004433417989
0.0002964793067
0.0003951212889
0.000481254249
0.0004093820546
0.0004129045122
0.0003742336619
0.000521080907
0.0005656297995
0.0004207725922
0.0003529881451
0.0005744794239
0.0005069669295
0.0004658074779
0.0005518021051
0.0005698757228
0.0005461974491
3.627850695e-05
0.0001162045563
9.441542409e-05
0.0001160119046
0.0001456108118
0.0001543865595
0.000260434233
0.0002909998279
0.0002619402326
0.0002770741262
0.0002436851289
0.0003988686456
0.0003279502629
0.0003392941779
0.0003905479188
0.0004144850775
0.0004161913442
0.0003570858272
0.0003624582537
0.0003837547084
0.0004262979416
0.0004081665167
0.0004675700869
0.000496553959
0.0004430071806
0.0005106811919
0.0003695408723
0.0003254153735
0.0004038111607
0.0004783134055
0.0004501309319
0.0004929347529
0.0004952693432
0.0004812848783
0.0004327899264
0.0004409417817
0.000368186083
0.0004444593911
0.0006468384178
0.0006031291319
0.0003974733487
0.0005699368071
7.26704224e+10
1.111748051e+11
6.776603208e-05
0.0001280476671
0.0001292439148
0.0004168104574
5.893007443e-05
0.0001709455849
0.0002195285173
0.0001481974521
0.0002660057552
0.0003224843025
0.000292309331
0.0003561145256
0.0003156028344
0.0003067924277
0.0003254420011
0.0003534313224
0.0003650621053
0.000506500158
0.0004074641498
0.0004611624985
0.0003685540816
0.0005020657582
0.0004960216084
0.000475929291
0.0004254273658
0.0004554356005
0.0004641669386
0.0004718825929
0.000445114527
0.0005404911819
0.000452809486
0.0004217048353
0.0004681736735
0.0004053453151
0.0005003327778
0.0004804136417
0.0004983420243
0.0004872236656
0.0005435193504
0.0006022716963
8.341508672e+10
0.0001154284351
9.292139263e-05
0.0001211696935
0.0001582795477
0.0001547202054
0.0002291102336
0.0001900809317
0.0002169974684
0.0003119417634
0.0002766398301
0.0004102278151
0.0002695724675
0.0003757009981
0.0003231295002
0.0004061925959
0.0003175728059
0.0004591368603
0.0005430047512
0.0003570349625
0.0004412865745
0.0006043600542
0.0005172041012
0.0005152796568
0.000529396715
0.0005345973485
0.0004577314721
0.0004037523648
0.0003589825868
0.0004133938198
0.0005955728157
0.0003986282448
0.0003832157481
0.0005341917976
0.0003455324181
0.0005387444108
0.0004470495216
0.0005151897763
0.0004419131034
0.0003987133951
0.0004128624394
0.0005786478779
5.980856976e-05
9.422470438e+10
1.852436222e+11
9.908392382e-05
9.767317292e-05
0.0001173919899
0.0001356953872
0.0001724743207
0.0001851151581
0.0002495399917
0.0003066750586
0.0002500041413
0.0001865728273
0.0002746660939
0.0003584599632
0.0002681170864
0.0003790481308
0.0004431567193
0.0003533297391
0.0004058002312
0.0003558603866
0.0005136209898
0.0005717708367
0.0004286344496
0.0005906059618
0.0004713235181
0.0005119602158
0.0004746611383
0.0004996049527
0.0004583364429
0.0004264117343
0.0003764352287
0.0003462088109
0.000394169309
0.0004611361718
0.0004876839887
0.0003717828307
0.0004919188259
0.0004741758459
0.0003800545244
0.0004818261682
0.0005156178476
1.629212544e+11
4.006939038e-05
6.517476669e-05
0.0002488182666
0.0001210545516
0.0002716215484
0.0001612966464
0.0002173310514
0.0002450408653
0.0002823759858
0.0002884989396
0.00023243034
0.0002738200308
0.0002778727332
0.0003775988365
0.0003177253693
0.0003700574346
0.0003632782687
0.0004460980394
0.0003994699532
0.0004718919849
0.0005040259738
0.0004378744829
0.0004874884086
0.0004644376211
0.0005116222955
0.000352620885
0.0003696801007
0.0004102816313
0.0003913992714
0.0003388476071
0.0005804895437
0.0004840310217
0.0003086121918
0.00057722759
0.0003361554502
0.0003199801725
0.0005476478356
0.0005074858171
0.0004769816601
0.0004909103885
0.000572967899
1.358340902e+11
8.482455506e+10
0.00013609857
0.0001534918039
0.0002549942417
0.0001384502382
0.0001530584841
0.0002291454061
0.0001908364555
0.0003037191337
0.0002387599219
0.0003911882765
0.0003110552599
0.0003278056048
0.0003680507721
0.0003615003094
0.00036092909
0.0003895130011
0.0003660233945
0.0004097459989
0.0004277430874
0.0004219823149
0.0005530169636
0.0004023606526
0.0004688991714
0.0005461532472
0.0004390013144
0.0003973017963
0.000420824418
0.0003763136542
0.0006795721455
0.0004459673251
0.000546704892
0.000432438527
0.0004296089358
0.0005966824482
0.0005201205671
0.0005681321226
0.0003965252399
0.0005204502846
0.0005008133107
0.0004246091702
1.804109566e+11
1.139571155e+11
9.325620598e-05
7.130925195e-05
0.0001032627867
0.0001638139957
9.347276665e-05
0.0001949856752
0.0002921507172
0.0003019811777
0.0003068174311
0.0001732811191
0.0004276187715
0.0003319144895
0.0003528963057
0.0003410565467
0.0003409602241
0.000490911327
0.0004216974603
0.0004036142601
0.0003537057411
0.0003754544803
0.0002998962357
0.0003375817666
0.00037214933
0.0004308633195
0.0004821026296
0.0006097792919
0.0003971695527
0.0005082224846
0.0005067299512
0.0003714252258
0.0004270640536
0.0004726257656
0.0005507460901
0.0006151268762
0.0005204805065
0.0006726380304
0.000390488789
0.000467995424
0.0004173246506
0.0003670556463
2.418262561e+11
1.894369651e+11
5.037013688e-05
0.000151764958
0.000114279893
0.0001184996191
0.000131496716
0.0001830595975
0.0002036501387
0.0002536456543
0.0003122323776
0.0003623883269
0.0003200681348
0.0003387881625
0.0002616113986
0.0003363569696
0.0002690984753
0.0003965995546
0.0004508223979
0.0003865499466
0.0005420326861
0.0002811280019
0.0003754121573
0.0002974102791
0.0004446900947
0.000419731493
0.0004771096726
0.00055483078
0.0005473305265
0.0004923505534
0.0004041712912
0.0004939754741
0.0005043293452
0.0005826893258
0.000523849371
0.0006107843116
0.0005146756438
0.0004500480458
0.0005054548072
0.0004046451794
0.0005069335343
0.0005218332959
2.243026486e+11
2.094419673e+11
9.241558135e-05
6.017657249e-05
0.0001580996939
0.0001707511715
0.000223682746
0.0001740759056
0.0002750602951
0.0002320755871
0.0002566565355
0.0002645667126
0.0003224316066
0.0003770239559
0.0003273976682
0.0002873177832
0.000384204016
0.0003925521419
0.0003481820325
0.0003588460719
0.0004269495573
0.0006083411006
0.0005253452746
0.0003886707812
0.0003798930272
0.0004387911707
0.0004284163247
0.0005321457635
0.0004956624734
0.000495692945
0.0004372088784
0.0003701126894
0.0005003318105
0.0004324742277
0.0004433937383
0.0005239280371
0.0005177532777
0.000569295529
0.0005122472104
0.0006156947315
0.0005424819318
0.0005845706571
1.673347996e+11
4.864002931e-05
2.599700062e-05
9.279160768e-05
0.0001275515215
0.0001982541171
0.0001928554699
0.0002317054839
0.0002003644665
0.0002605034619
0.0003200133688
0.0003296958451
0.0003472199613
0.0004161627963
0.0002457255583
0.0002904118257
0.0004166905021
0.0003911525784
0.0004549838195
0.0005044796783
0.0003864094809
0.0003730009289
0.000486549187
0.0003640651154
0.0003845874993
0.0004437417856
0.0004310746189
0.0004728521318
0.0004620127118
0.0003895123986
0.0004618159933
0.0003848379995
0.0005099886965
0.0003971370109
0.0002790074781
0.0006075076059
0.0005541439793
0.0004035463531
0.0003343841838
0.0004903956735
0.0005230808581
0.0005275840842
6.544637438e-05
2.346832079e-05
5.312050887e-05
0.0001315104913
0.0001261736217
0.0001761868756
0.000226026793
0.0002502448571
0.0001736262146
0.0002235761335
0.0003053718108
0.0002670586106
0.0004621325774
0.0003385277491
0.0003051847937
0.0003810456972
0.0003248142044
0.0003284000669
0.0004028003697
0.00053985683
0.0002806295602
0.0004412218689
0.0005151953106
0.0003287145728
0.0004581188347
0.0003679675432
0.0004954120843
0.0005084644651
0.0005553946573
0.0004742843187
0.0005728979682
0.0005016296432
0.0007040929664
0.0006808648223
0.0005459622738
0.0006235252189
0.0005603933614
0.0003660980023
0.0004444418014
0.0004575812203
0.0003946445248
0.0007305590005
3.470350694e+11
8.689373439e-05
9.844713733e-05
9.347736428e-05
0.0001957034764
0.0001564810293
0.0001747427111
0.0001884141897
0.0002236789734
0.0002437004003
0.0002658879257
0.0003138728311
0.0002455756423
0.0002733396305
0.0003013755805
0.0004199938084
0.0004078490792
0.0003393848668
0.0004139258403
0.0004149986916
0.000369754399
0.0003706726538
0.0003867004273
0.0005506081479
0.0005491606482
0.0005644639159
0.0004066713919
0.0005048810476
0.0005533103325
0.000355984868
0.000487911482
0.0005496731149
0.0004451930872
0.0003872460058
0.0004525261553
0.0006056585142
0.000348484553
0.0004621863057
0.0004245581228
0.0004259916009
0.0004354302827
0.0003610682144
5.117139008e+11
7.490855407e-05
8.434207527e-05
9.456812827e-05
0.0001553401972
0.0001612603349
0.0003073978469
0.0001884445584
0.0002450043592
0.0002453475193
0.0003280848522
0.0002776332646
0.0002952637136
0.0004115048792
0.0003063789263
0.0002366852562
0.0003587324338
0.0004443986879
0.000404009564
0.0004634542501
0.0003440160469
0.0003570533743
0.000445147247
0.0006744471875
0.0004548497349
0.0004481509554
0.0004208251544
0.0004051074182
0.0004146973385
0.0004519350098
0.0004738003214
0.0003996899871
0.0003725265119
0.0004726736701
0.0006558231429
0.0003871218631
0.0005235030286
0.0004961333194
0.0005356026359
0.0003935039165
0.0005707754947
0.0004874941136
2.554602039e+11
1.802796835e+11
2.770317777e+11
0.0002622239817
0.0001254235115
6.907576529e-05
0.0001289483895
0.0002082540488
0.0003694034491
0.0002122471257
0.0003643421353
0.0003928315035
0.0003344848074
0.0002765199292
0.0003842167832
0.0004421767016
0.0003922461254
0.0003457246655
0.0004465049622
0.0003646625951
0.0004777734823
0.000431544713
0.0004435239851
0.0003592894218
0.0004594535366
0.0005421685399
0.0004986838258
0.0005031118937
0.0004406803447
0.0004860002213
0.0004018776648
0.00037550893
0.0004054637299
0.0003218514532
0.0003754975744
0.000479792609
0.0004894380451
0.0003806935687
0.0003918550412
0.0004260218551
0.0005901225774
0.0003627317851
1.554736458e+11
2.103768511e+11
0.0001120767865
9.312998823e-05
0.0001066044891
0.0002780883213
0.0001865324612
0.0002586908417
0.000193742648
0.000283345598
0.0003403695094
0.0002051398577
0.0003098076209
0.0002901615847
0.0003548191828
0.0003533623785
0.0002942327694
0.0003750134423
0.0005208822116
0.0004002221801
0.0003332832749
0.0004321517283
0.0003721046224
0.0004546967499
0.0004949836703
0.0003585660445
0.0005314473516
0.0004658793804
0.000484223272
0.0003991018172
0.0003738670722
0.0006001538252
0.0004096877762
0.0005482786969
0.000694155122
0.0005612406199
0.0005532876067
0.0006401543409
0.0006280313439
0.0005944234338
0.000484856357
0.0005061031038
3.818941927e+11
2.987814128e-05
6.212260233e-05
0.0001340026184
8.769292176e-05
0.0001967629918
9.053882001e-05
0.0002298591181
0.0002027393599
0.0002443659254
0.0002271382302
0.0002916935705
0.0002740194678
0.0002928826297
0.0001968799162
0.0004166360117
0.0003398711219
0.0004293705957
0.0004448952233
0.0004127942684
0.0004021343586
0.0003730445461
0.0003208357397
0.0004038292511
0.0004685876801
0.0004101261469
0.0004021875845
0.0003174795181
0.0003981674128
0.0004966256524
0.0003850262097
0.0005193684575
0.000482154226
0.0004278807543
0.0005572119848
0.0005722728371
0.0005550467383
0.0003729578178
0.0004250998648
0.0005801646671
0.0004800192743
0.0004856674563
2.007650896e+11
2.081609149e+11
4.713571544e-05
0.0002295551139
0.0001195521971
0.0001814468242
0.0001453751013
0.0002851426591
0.0001904548653
0.000313029752
0.0003106018785
0.0002288474957
0.0003057347645
0.0003304938146
0.0003485030535
0.0002770915958
0.0003642543588
0.0003881885306
0.000399071516
0.0003202980788
0.0003627351669
0.0005049468929
0.0003458609919
0.0005516741549
0.0004714000674
0.0003972090617
0.0005197080541
0.0005213272379
0.0005073158719
0.0005039241808
0.0004869429099
0.0005048012309
0.0004461407077
0.0004136892619
0.0005367874856
0.0003877302262
0.0005422755778
0.0004644855437
0.0004822947983
0.0004421304321
0.0004359110793
0.0005680314082
3.603673462e+11
9.776979116e+10
9.242422317e-05
0.0001842931951
0.0001161029207
0.0001517190109
0.0001939084593
0.0001849334843
0.0002720990749
0.0002293136167
0.0004611542978
0.00036435497
0.0003361698013
0.000307054464
0.0003508110677
0.0003884452916
0.0004879504669
0.0003236876267
0.0003390237337
0.0003922553401
0.0003927982736
0.0005385704895
0.0006236223096
0.000568705943
0.0006153497991
0.0004553366632
0.0004738601046
0.0005276672319
0.0003802621697
0.0003522317191
0.0003852080466
0.0003605225711
0.0003608885769
0.0005194643157
0.0004930353067
0.0004953973671
0.0004842203629
0.000412267906
0.0004637917771
0.0004807970095
0.0004066793654
0.0003623115361
0.0002172344416
9.899947993e-05
5.940365379e-05
9.497869133e-05
0.0001378526349
0.000167608959
0.0002105249678
0.0001806756477
0.000260996108
0.0003022979599
0.0003108604471
0.0003248477013
0.000376208924
0.0004307597006
0.0003613661248
0.0003919956029
0.0004834405052
0.0004669134417
0.0004747385876
0.0004557092197
0.000573533614
0.0005554643381
0.0005070473905
0.0003749452237
0.0004442800883
0.0003923388712
0.0004239952797
0.0004394405605
0.0005060031177
0.0004410717534
0.0004798393431
0.0004792145916
0.0003485321752
0.0003752469048
0.0003038456282
0.0004672966593
0.0004335089253
0.0005088414213
0.0004612468322
0.0004273602661
0.0003745945725
0.000253653079
3.413470715e+11
0.0001393579491
5.42318542e-05
5.378980817e-05
8.537768401e-05
8.534843478e-05
0.0002058124385
0.0002716463164
0.0001835049638
0.0002293566172
0.0003287312359
0.0003051553745
0.0003231569622
0.0004159577189
0.0004247933337
0.0004767435476
0.0004379105634
0.0004641722692
0.0004559937054
0.0003875153924
0.0004302177569
0.0005635338718
0.0004787188779
0.0004398643447
0.0003884242937
0.0005390049026
0.0005101677749
0.0004444115374
0.0003640583888
0.0005024896512
0.0004634640442
0.0003790038113
0.0003974517505
0.0005377895674
0.0004674190129
0.0004775393863
0.0004477902044
0.0004760777147
0.0002587468819
0.0003596325504
0.0003875503766
0.0004077002029
1.009537257e+11
2.59107908e-05
8.673834376e-05
0.0001246587377
0.0001296722667
0.0001231897608
7.142362608e-05
0.0001965688231
0.0002368412659
0.0001547727557
0.0002857321864
0.0002461062503
0.0002829321622
0.0002907454106
0.0002665474143
0.0003301784212
0.0003746579534
0.0002874573432
0.000368379729
0.0004453778607
0.0004201457538
0.0003880387956
0.0005376155664
0.0003927532581
0.0006691398672
0.0005012678357
0.000573903134
0.0004948524334
0.0004403580128
0.0003920371702
0.0004519278583
0.0005582683842
0.0004567819523
0.0005464533419
0.0005336333883
0.0004607087959
0.000625740997
0.0005762689767
0.000475113453
0.0004326691354
0.0004201312933
0.0004749059545
0.0001075235665
0.0001035841931
0.0002235473042
9.650377567e-05
0.0001101765227
0.0002225243273
0.000217256976
0.0003085326838
0.0001496441191
0.0002088371836
0.0003031937623
0.0002829087469
0.000454058718
0.0003140440042
0.0003071013748
0.0003336582732
0.0004139396073
0.0005473537467
0.0003178385654
0.0003200425257
0.0003281731777
0.0003417144275
0.000463509272
0.0004155926429
0.0004277039511
0.00038683704
0.0003748287054
0.00042983051
0.0003718679758
0.0004235576819
0.0004491670661
0.0004593548327
0.0004976417466
0.000566841345
0.0004727449763
0.0004184548076
0.0004556970352
0.0004603620102
0.0005973737163
0.0004435967031
0.0004228353803
0.0004711656581
5.186342949e+11
7.111050491e+10
1.191155502e+11
5.822973141e-05
0.0001704797816
0.0001288827584
0.0001231714468
0.0003001665336
0.0002347881884
0.0002344066972
0.0003611013835
0.0002964413268
0.0003182928421
0.0003989061174
0.0004419635181
0.0004207165752
0.000394253252
0.0004578108151
0.0003620945975
0.0003838482092
0.0004343528708
0.0004401275194
0.0003863965442
0.0003525860345
0.0004296659421
0.000467398521
0.0004931688246
0.0004601871394
0.0003312834399
0.000459349789
0.0004334616755
0.0003225028546
0.0003770146743
0.0005636805525
0.0006859121456
0.0002395361344
0.0005224020716
0.0004167940317
0.0004800624199
0.0004028222336
0.0004541983619
0.0003519510098
5.332124644e+11
7.320739507e+10
5.563478125e-05
0.0001839898672
0.0001103373288
0.0001601444549
0.0001190712355
0.0001893130409
0.0001524626942
0.0002034308003
0.0003060720651
0.0002558712913
0.0003355989396
0.0003245552606
0.0003733066494
0.0003522414457
0.0003101194113
0.0003761066295
0.0002782077942
0.0004927682216
0.0004001278483
0.0002107291383
0.0004196081759
0.000426060827
0.0003751233798
0.0005235641118
0.0004008029269
0.0004972421105
0.0005493091631
0.0004374171707
0.0004416484103
0.0005556264245
0.000419719863
0.0004258729572
0.0004779637719
0.0004467588691
0.0004436138752
0.0005126228639
0.0004160022008
0.000397187786
0.0005596176966
0.0003978642641
1.245205931e+11
7.865052887e+10
0.0001184671953
6.941407531e-05
0.0001081813919
0.000133761648
0.000271008107
0.0003028251584
0.0001216109957
0.0002750276973
0.000284335403
0.0003745763912
0.0003679773856
0.0003759395329
0.0002868462811
0.0003355704393
0.0004025358051
0.0004512549569
0.0004758278223
0.0005645280549
0.0004311053302
0.0004136184681
0.00039756912
0.0003802564246
0.0004254679553
0.0003043368667
0.000386396667
0.0005903656385
0.0005238910104
0.0004579649916
0.0005198239584
0.0004443274423
0.0003951328183
0.0004678239837
0.0004401537168
0.0004438909774
0.0003799594757
0.0004204271688
0.0002974743473
0.0004364106353
0.0003686785738
0.0004085989368
2.353332546e+11
1.030072366e+11
0.0001104921878
8.646200709e-05
0.0001193478079
0.0002062177318
0.0001237381877
0.0001997503135
0.0002209060728
0.0002476567121
0.0003482200626
0.0002695868775
0.0002347942643
0.0004238309541
0.0004955891915
0.0003701465304
0.0003764596009
0.0004059269865
0.0004599933271
0.0004261737693
0.0005230490781
0.0004538802549
0.0003161604267
0.0003806867927
0.0005316920919
0.0004572429256
0.0004521283105
0.0006094183286
0.0004780429792
0.0004441468522
0.0004148792252
0.0005256323211
0.0005454623443
0.0005393579157
0.0006369154032
0.0005991438372
0.000486482519
0.0004079100191
0.0005586581075
0.0004780967938
0.0004830388936
0.0003531668981
3.696878961e+11
1.243885006e+11
0.0001417656769
0.0001258178988
0.000114751585
0.000164858661
0.0001605334684
0.0001877251751
0.000148518922
0.0002900436138
0.0002418158891
0.0002812146457
0.000315093369
0.0003504851532
0.0004157804318
0.0003300761873
0.0003675018093
0.0003911795251
0.0003183807189
0.0003965192881
0.0004494937967
0.0003475003301
0.0004459798735
0.0004960309055
0.0004760595247
0.000450161561
0.0006277363711
0.0004620625115
0.000487307742
0.0004349898833
0.0005205737388
0.0004618567167
0.0005073365154
0.0002874615166
0.0004311556006
0.0005084091819
0.0005045625785
0.0003720113948
0.0005060577967
0.0004730686366
0.0005168233521
0.0005185441488
6.274299542e-05
4.93010808e-05
7.473461542e-05
0.0001085405216
0.000164267535
0.0001589054242
0.0001602905331
0.0001828675835
0.0002026137868
0.0003448175753
0.0003743038915
0.0002799812546
0.0003211238303
0.0003396605031
0.0003531582864
0.0003535761299
0.0003930154013
0.0004534416143
0.0004896754169
0.0003949044412
0.0003602058506
0.0003682279656
0.0003827386312
0.0005329564462
0.0004501154117
0.0005646673759
0.0004417748136
0.0003333215103
0.0002993109204
0.0003772340645
0.0004689547675
0.000366640312
0.0003442656362
0.0003311914941
0.0003815053456
0.0004607628179
0.0004541299483
0.000499314103
0.0004413543586
0.0004401222559
0.0003250305908
0.0002992201763
1.882293573e+11
1.677958024e-05
3.717895132e-05
0.000179171581
0.0002057180809
0.0001618140932
0.000264901924
0.0001485336323
0.0002072204689
0.0002014847663
0.000220559913
0.000318055099
0.000324581048
0.0003947257751
0.0003655496086
0.0004200496499
0.0004024110503
0.0004009690469
0.0003729639307
0.0004049678492
0.0004609241789
0.0003961028458
0.0004255470862
0.0004339054211
0.0005243756237
0.0003083474352
0.0003609593845
0.000359455614
0.0004111413024
0.0004916564829
0.0004440160749
0.0003500762599
0.0003926122472
0.0003787772203
0.0003898081763
0.0004659610564
0.0003880105609
0.0004244722435
0.0004900886063
0.0005329296884
0.0005262964183
0.0004651501871
2.941828872e+11
9.531640305e-05
6.569638946e-05
0.0001289294099
0.0003153822709
0.0002264199384
0.0001756103161
0.0003732651086
0.0001719334722
0.0001790911035
0.0003239838224
0.0002752184312
0.000286908142
0.0002901407157
0.0002896810882
0.0002931493693
0.0002646434507
0.0003912682475
0.0003968586445
0.000441910356
0.0005461459746
0.00053528525
0.0004401313242
0.0004474013418
0.0004734987651
0.0003644152431
0.0003938232431
0.0004513318183
0.0004560205776
0.0004334203356
0.00047916468
0.000502114672
0.0005354269843
0.0004541409871
0.0004907341334
0.0003813346366
0.0004178021314
0.0004963952751
0.0003693786574
0.0005239382797
0.0005427597316
0.0003295678634
5.125077388e-05
8.20245257e-05
8.19419783e-05
0.0001372970584
9.452200244e-05
0.0001241432445
0.0003889717657
0.0002530548629
0.0001991650674
0.0002198600519
0.0002962913317
0.0003436373909
0.0003134365524
0.0004068208028
0.0003687235028
0.0003540901792
0.0003424251198
0.0003771241765
0.0004852377998
0.0004938819749
0.0006031595381
0.0005199605533
0.0005651097671
0.0004891546434
0.0004951214419
0.0005619847494
0.0004960708014
0.0004228008253
0.0004337815005
0.0003919000996
0.0003910549664
0.0004798360096
0.000470893551
0.0004514914167
0.0004733913906
0.0004199945872
0.0004631884378
0.0005018785577
0.000424585012
0.0004460636302
0.0004646832459
0.0003958618647
9.627320717e+10
3.736900063e-05
1.36714047e+11
0.0001605187144
0.0001133504041
9.440099613e-05
0.0001146387527
0.000252630148
0.000299645872
0.0002077089026
0.0003308327899
0.0002809339079
0.0002730977667
0.0003204921238
0.0003427468613
0.0003725852609
0.0003168086463
0.0004156988432
0.0004508068959
0.0002724761481
0.0003893713076
0.0004562488506
0.000413644091
0.0004060623364
0.0004071756705
0.0004525094115
0.0005046619532
0.0004071578424
0.0005489380492
0.0004293919715
0.0003528117822
0.000369808182
0.0003837689582
0.0005053264139
0.0004726653279
0.0004413870502
0.0004469607137
0.0004676993888
0.0004431809188
0.000414845204
0.0003285976139
0.0004841344305
1.107854016e+11
5.206985432e-05
7.507854907e-05
0.0001025583855
0.0001227117709
0.0002134834823
0.0002196565011
0.0002011352399
0.0001742686464
0.0002014138073
0.0002652538646
0.0002575523346
0.0002437177571
0.0001525075268
0.0003600822556
0.0002967968635
0.0003831898441
0.0004305458789
0.0002524434922
0.0004629151701
0.0003881581138
0.0006015527058
0.000443318309
0.0004623286916
0.0004286421948
0.0005299814071
0.0005835705563
0.0004694787545
0.0004059654005
0.0003717890373
0.0003699617819
0.000338089106
0.0004700033088
0.0004789757187
0.0003130469737
0.0004688878951
0.0004398855807
0.0005490081429
0.0004548163666
0.0004013134988
0.0003502146708
0.000316231088
1.983200449e+11
0.0001115936125
1.628609564e+11
9.642962401e-05
0.0001737106655
0.0002817117821
0.0001637524496
0.0002184732353
0.0002995707187
0.0002975283081
0.0002374281947
0.0003883222406
0.000372764066
0.0002797385437
0.0002587202659
0.0003045626584
0.0003521603224
0.0003371976986
0.0004774993524
0.0004805873489
0.0002902975004
0.0004296323491
0.0003956215384
0.0003573359473
0.0003475824619
0.0004268358393
0.0004308745765
0.0004095827395
0.0004915511322
0.0004726281307
0.0003316983845
0.0003393473057
0.0003634613233
0.0004898172979
0.0004105827691
0.0003024267576
0.0003940883585
0.0004858078737
0.0005359254932
0.0005523164939
0.0005438507449
0.000442057912
2.642089008e+11
9.440732226e-05
0.0001878309634
0.0002314894904
0.0001957719878
0.0001447046175
0.0001974031626
0.0003184635628
0.0002342580731
0.0002736718915
0.000389512876
0.0003062515688
0.0004066432307
0.0002983839141
0.0003811141622
0.0004188405421
0.000356416706
0.0003543409846
0.0005244044064
0.0003083180618
0.0005100202095
0.0003895562516
0.0004197529724
0.0004795458329
0.000444220607
0.0004513873444
0.0004741683423
0.0004846467472
0.0005042811644
0.0004804202456
0.0004554519173
0.0005179334321
0.0005252326178
0.0003713967527
0.0004264453501
0.0006195791976
0.0005007827062
0.0004381834748
0.0005180543489
0.0004957068498
0.0004014763449
0.0003996297531
3.193005333e+11
0.000124538968
8.698509552e-05
0.0001069227998
7.881217022e-05
0.0002339438072
0.0002172920912
0.0001934596423
0.0001787199973
0.0002247395796
0.0002904328168
0.0002654747069
0.0003608375594
0.0002984790381
0.0003453671555
0.0003836487371
0.0003722458843
0.0002362165948
0.0004035174926
0.000280922479
0.0004532359425
0.0003635692846
0.0003572555337
0.0004532285026
0.0004243868108
0.0005923024817
0.0004732827601
0.0003348683941
0.000409178221
0.0004555700775
0.0004894275567
0.000552078938
0.0005903261372
0.0004435080435
0.0004607727308
0.0005612469277
0.0004611690271
0.0004913478908
0.0003169707266
0.0004822340221
0.0004926986676
0.0005605721069
2.345107637e+11
2.87627067e-05
7.372872399e-05
0.0001195713373
0.0002052555844
0.0001823380391
0.0001857161684
0.0001927427912
0.0002750087407
0.0004071397093
0.0002988534041
0.0002485859464
0.000357890467
0.0002706192641
0.0003264329044
0.0003669689444
0.0003507106177
0.0005070150045
0.0003408017805
0.0004698058574
0.0004960839829
0.0004918562146
0.0003828607952
0.0004751544032
0.0003745447792
0.0004386427353
0.0004314748289
0.0003409860566
0.0003569448444
0.0004400692553
0.0005671823019
0.0005517563834
0.0005664110385
0.0004335834409
0.0004228685255
0.0003781520581
0.0003361289815
0.0004464521641
0.0005188427456
0.0003474835254
0.0005881369084
0.0005674690335
0.0001534367391
0.0001237694978
9.275868515e-05
6.810003916e-05
0.0001822663131
0.0001434694744
0.0002862702311
0.0001785123924
0.0002091219254
0.0002008359396
0.0003407546644
0.0002729795365
0.000309225423
0.0003972801214
0.0004231075592
0.0004240081991
0.0003153945198
0.0003206697373
0.0003192232248
0.0002653975311
0.0004730151453
0.0003452358197
0.0002891337613
0.0004987500902
0.0005030385319
0.0004281432711
0.0003665144588
0.0002851751075
0.0003852483
0.0004423688228
0.0004084941526
0.0004923227696
0.000537434642
0.0004121162767
0.0005305653233
0.0005557264758
0.0004764089383
0.0006011916076
0.0003260186252
0.0005508658594
0.0003933389453
0.0004660778137
2.844467618e+11
7.704600212e-05
0.0001521340537
0.0001082388778
0.0001035493082
0.0001251883066
0.0001962679968
0.0001956245672
0.0002052068663
0.0001626579742
0.000277883316
0.0002583318263
0.0002581185964
0.000238857325
0.000335323149
0.0003672316037
0.0003872686704
0.0002637433608
0.0004436221195
0.0004795332915
0.0004719848219
0.0004087497792
0.0005533372352
0.0004342367364
0.0004558075249
0.0004090847739
0.0005735885995
0.0004471163875
0.0003934455458
0.0005061568762
0.0003515715706
0.0005640544683
0.0004676047182
0.0005426621169
0.0004584075407
0.0003487518632
0.0003997492849
0.0004134970102
0.0003234440579
0.0004861367448
0.0006045373896
0.0005772603923
9.729655949e+10
1.034103422e+11
9.094462741e-05
0.0001451219753
0.0001304653425
0.0001685468447
0.0002256649084
0.0003591335768
0.0002077560485
0.0002185599438
0.0002104923047
0.000261071481
0.0003599743676
0.0005152502333
0.0004232955318
0.0003352708749
0.0005532785622
0.0003296867664
0.0006829406126
0.0003954173124
0.0005673853557
0.0005646948927
0.0003778257974
0.00037069736
0.0004796356017
0.0006364794452
0.0005879964273
0.0005984455783
0.0006461508852
0.0006239321889
0.0006710907969
0.0005954855027
0.0005923204913
0.0007031176553
0.0006253195926
0.0007739537999
0.0006723732167
0.0006082888241
0.00078707736
0.0006090825934
0.0008008925643
0.0009047999038
8.791388527e+11
6.656771992e+11
0.0002154376329
0.0002903243049
0.0004877345354
0.0003138254578
0.000272327696
0.0002770860216
0.0003490238075
0.0003505093897
0.0003052254812
0.0005617543525
0.0005515859659
0.0005103798644
0.0005485794954
0.0005515875359
0.0005356765755
0.0004998518894
0.0005624306734
0.0005079570417
0.000701438736
0.0006590945837
0.0005621399719
0.0007491686653
0.0005005719427
0.000667354395
0.0006251667651
0.0007621786682
0.0007304009154
0.0007145700423
0.0008326666842
0.000612043131
0.0007658952756
0.0006896506275
0.0008334955604
0.0008018849297
0.000942639549
0.0009737207393
0.0008049111436
0.00085587231
0.0008927027428
0.0008023487771
0.0005973407616
0.0001927946086
0.0003549111912
0.0002578650424
0.0004073530696
0.0008243400291
0.0006763549968
0.0008802287931
0.0004828235033
0.0006299011452
0.0005674582749
0.0008480885072
0.0009537491982
0.0006428493144
0.0005828837267
0.0009960261978
0.0008819668299
0.0009166013744
0.0006000266139
0.0008250316569
0.0007423575112
0.0006958442755
0.0008423422685
0.0006719390243
0.0007723791382
0.0009538915227