/*--------------------------------*- C++ -*----------------------------------*\
| =========                 |                                                 |
| \\      /  F ield         | OpenFOAM: The Open Source CFD Toolbox           |
|  \\    /   O peration     | Version:  v1706                                 |
|   \\  /    A nd           | Web:      www.OpenFOAM.com                      |
|    \\/     M anipulation  |                                                 |
\*---------------------------------------------------------------------------*/
FoamFile
{
    version     2.0;
    format      ascii;
    class       volScalarField;
    location    "3.989";
    object      SOFP_N2;
}
// * * * * * * * * * * * * * * * * * * * * * * * * * * * * * * * * * * * * * //

dimensions      [0 0 0 0 0 0 0];


internalField   nonuniform List<scalar> 
50792
(
8.149638475e+10
8.391200868e-05
5.381108747e-05
8.597909429e-05
0.0001812526398
0.0001796164807
0.0002081810257
0.0001648227026
0.0002130404856
0.000124062661
0.0002003610251
0.0003414056609
0.0001833245945
0.0001617317674
0.0003704422105
0.0003583700463
0.0002944359558
0.0004171511602
0.0003841051006
0.0002983845062
0.0003764220915
0.0004369853252
0.0003946873195
0.0004872243203
0.0005017550071
0.0004431877218
0.000461343145
0.0003854120522
0.0004312068994
0.000392233595
0.0005449016566
0.0004929830756
0.0005509917404
0.0006627594333
0.0004013046377
0.0005182947493
0.0005148485454
0.000415881234
0.0005174472261
0.0006890936085
0.0006252442514
0.0005343162892
6.835455571e+10
1.366176082e+11
2.297179097e-05
0.0001009918091
7.021886834e-05
0.0001950184059
0.0001022342032
0.0001203561845
0.0002003994602
0.0001564615942
0.0001712471466
0.0001563470545
0.0002493652454
0.0002734877615
0.0002402055478
0.0002531430656
0.0002238386918
0.0002361117914
0.0002581909966
0.000234654032
0.0002918468603
0.0002428292001
0.0003859306929
0.0004060816265
0.000381481024
0.0003781478661
0.0002492841879
0.0003277570821
0.0004034756483
0.000329687184
0.0003439333837
0.0003027258862
0.0004208507397
0.0004575423987
0.000342570025
0.0002875964155
0.0004713710612
0.0003967337066
0.000371525211
0.0004496047498
0.0004658915035
0.0004273613223
3.585556427e-05
0.0001003919268
7.889829404e-05
0.000101825906
0.0001270331738
0.0001364885228
0.0002071860518
0.0002617050383
0.0002212132368
0.0002403020301
0.0002129276802
0.0003461106003
0.0002787405733
0.0002806581745
0.0003158155934
0.0003360231784
0.0003405162221
0.0002944717011
0.0003068614523
0.0003205839079
0.0003416214164
0.0003338199092
0.0003868068561
0.0003975376427
0.0003482649014
0.0004118283057
0.0002870171556
0.0002620398124
0.0003200628203
0.0003901188038
0.0003520584272
0.0003776831833
0.0003912532489
0.0003953511707
0.0003447563011
0.0003660467188
0.0003076293002
0.0003744520311
0.0005328785573
0.0004977775134
0.0003164870183
0.0004595909231
5.968278949e+10
1.025517534e+11
5.839666946e-05
0.0001095410864
0.00011227823
0.0003273040128
4.774177443e-05
0.0001371647767
0.0001890253641
0.0001262604174
0.0002247669574
0.000271902664
0.0002617336008
0.0002965563501
0.0002665176091
0.000268972532
0.0002589757222
0.0002973315136
0.0002878600483
0.0004000540803
0.0003280264775
0.0003638788763
0.0003002657506
0.0004243218153
0.0004378386026
0.0004097925223
0.000348026767
0.0003566596087
0.0003817956177
0.0003957736521
0.0003381059816
0.0004204137886
0.0003606627925
0.0003504996928
0.0003922672555
0.0003346569779
0.000414255723
0.0004024655897
0.0004123687332
0.0003947272978
0.0004406625459
0.0005084939662
6.120817827e+10
0.000107987225
0.0001191912402
8.514627308e-05
0.0001093706712
0.0001184212246
0.0001778521837
0.0001567132316
0.0001959064296
0.000256290664
0.0002284287608
0.0003710976851
0.0002229819056
0.0003240698078
0.00027258244
0.0003380205858
0.0002593510978
0.000394156557
0.000466908045
0.0003011577727
0.000369569815
0.00051404181
0.0004279146233
0.0004208395759
0.0004503689221
0.0004115940043
0.0003565546542
0.0003338156904
0.0002911350611
0.0003231680344
0.0004740291159
0.0003150010333
0.0002943244364
0.0004304181494
0.0002782245577
0.0004563802535
0.0003653109092
0.0004239481679
0.0003601028834
0.000321110516
0.0003306809608
0.0004488156231
6.085876768e-05
7.513182874e+10
1.639370295e+11
8.185415857e-05
8.123325508e-05
9.443196744e-05
0.000105269177
0.0001402195637
0.0001452858385
0.000194204955
0.0002622363257
0.0002099367198
0.0001568647906
0.0002345475654
0.0003017397794
0.0002287521859
0.0003215245864
0.0003735713188
0.0003078328797
0.0003415413276
0.0003034410224
0.000415564132
0.0004919189668
0.0003549127322
0.000497801296
0.000398379576
0.0004294716592
0.0003888717969
0.0004069093638
0.0003631628474
0.0003570307373
0.0002978486256
0.0002723882222
0.0003166059462
0.000371539956
0.0004064340829
0.0003030477075
0.0004028583646
0.0003933475002
0.0003117945745
0.0003962656797
0.0004331714451
1.040759241e+11
3.717547641e-05
6.242309768e-05
0.0002206290292
0.0001067628425
0.0002695131199
0.0001407293019
0.0001984582754
0.0002076517544
0.0002466301982
0.0002385715834
0.0001920645443
0.0002281686311
0.0002329724666
0.0003144000011
0.0002573403476
0.000298460289
0.000278086486
0.0003454986581
0.0003156158634
0.0003755003975
0.0004365410628
0.0003774243196
0.0004088631058
0.0003885866244
0.0004273589296
0.0002791466875
0.0002902844785
0.0003305489498
0.0003322439499
0.0002931972904
0.0005199319502
0.000419452379
0.0002616565673
0.0004915285151
0.0002727742325
0.0002513103717
0.0004459705499
0.0004112466617
0.0003856513738
0.0003826637532
0.0004702833861
1.368994573e+11
7.093746481e+10
0.0001038082103
0.0001101669101
0.0001917616927
0.0001055656172
0.0001196735424
0.0001719115448
0.0001447798056
0.0002346891457
0.0001864080505
0.0002953914025
0.0002358613872
0.0002527938367
0.0002774885925
0.0002811924675
0.0002958849353
0.0003136225997
0.0002897574693
0.000323443927
0.000328224838
0.0003199689781
0.0004292970305
0.0003114521327
0.0003762305922
0.000412795193
0.0003569657604
0.0003399010258
0.0003577218689
0.000307306405
0.0005519298882
0.0003598211215
0.0004511393826
0.0003672272934
0.0003582076176
0.000500487397
0.0004381190034
0.0004864782234
0.000328654367
0.0004303788478
0.0004123954173
0.0003484195657
1.88217249e+11
9.429834016e+10
7.492120532e-05
6.11680939e-05
9.078774968e-05
0.0001440704551
7.700357233e-05
0.0001561539943
0.0002381132876
0.0002484358705
0.0002423963209
0.0001366497321
0.000326012593
0.0002659166563
0.0002814007626
0.0002757981966
0.0002730719934
0.0003783066764
0.0003344879461
0.0003177428968
0.0002765709152
0.0002887515806
0.000231009324
0.0002595410346
0.0003033345693
0.000369646311
0.0003926012877
0.0004964115774
0.0003142733031
0.0003898802293
0.0003496719028
0.0002800990683
0.0003288735077
0.000366884437
0.0004430252015
0.0005168249927
0.0004344698147
0.0005444620593
0.0003205020881
0.0004034517479
0.0003465400463
0.0003068376011
2.355710392e+11
1.497348125e+11
4.080827768e-05
0.0001218083496
0.0001010833173
9.538330089e-05
0.0001036831254
0.0001502700698
0.0001722459249
0.0002097179484
0.0002564454402
0.000299929854
0.0002642860168
0.0002881414176
0.0002226732893
0.0002940557758
0.0002273580992
0.0003459881787
0.0003943365165
0.0003344237192
0.0004633727132
0.0002382494942
0.0003293275467
0.0002529823897
0.0003723561614
0.0003456301682
0.0003975194145
0.0004683381121
0.0004513998543
0.0003778641038
0.0003447094274
0.0004246844229
0.0004329072883
0.0004761496519
0.0004442168324
0.0005213848659
0.0004525906062
0.0003883655896
0.0004321214196
0.0003428179095
0.0004184485769
0.0004316881515
2.117831454e+11
1.960345606e+11
0.000180138976
5.712085692e-05
0.0001482855683
0.0001556518618
0.000191155271
0.000146332744
0.0002164027046
0.0001907111019
0.0002160167735
0.0002190317655
0.0002629869436
0.0003302388953
0.000253397376
0.0002348079806
0.0003095548515
0.0003197718353
0.0002829571254
0.0003033629437
0.0003582648127
0.0005020664062
0.0004301463717
0.00032024827
0.0003186503606
0.0003599590656
0.0003542551728
0.0004474822402
0.0004104581721
0.0004153952703
0.0003694630219
0.0003069878817
0.0004241068404
0.0003690960093
0.0003694272557
0.0004558560653
0.000455386566
0.0004939965305
0.0004338445503
0.0005356290671
0.0004712776269
0.0005169069695
1.711890782e+11
3.341042346e-05
2.042670645e-05
7.560146207e-05
0.0001018240469
0.0001720620467
0.0002012499467
0.0001912358248
0.0001685442031
0.0002072987411
0.0002466127765
0.0002618614052
0.0002700157221
0.0003138410294
0.0001991029959
0.0002298420374
0.0003300327004
0.0003087861509
0.0003685878922
0.0004001468239
0.0002959081393
0.0003008680393
0.0003861694993
0.0002825220633
0.000291282149
0.0003498673838
0.0003412810549
0.0003547678846
0.0003787913857
0.0003052736501
0.0003751036193
0.0003032137778
0.0003964347773
0.0002985371968
0.0002107620498
0.0004682362421
0.0004114035687
0.0003078551794
0.0002640693871
0.0003817241177
0.0004019470646
0.0004233797714
3.865082095e-05
3.979912415e-05
4.235198773e-05
9.887523984e-05
9.935802286e-05
0.0001472096706
0.0001940036402
0.0001979023878
0.0001434022443
0.0001829164798
0.0002530583902
0.0002304485336
0.0003830139932
0.000279167894
0.0002644749738
0.0002977473611
0.0002587590522
0.0002589944719
0.000305463714
0.0004129935704
0.000212877693
0.0003604247256
0.0003883238147
0.0002555150557
0.0003654046603
0.0002795076792
0.0003668705665
0.0004015784509
0.0004600334216
0.0003704676923
0.0004195811385
0.0003700469945
0.0005063666687
0.000493398654
0.0003958453797
0.0004637108376
0.0004241455896
0.0002826792231
0.0003513663292
0.0003628125803
0.0003201166436
0.0006099414149
1.643302288e+11
4.594474346e-05
7.472913424e-05
6.892175591e-05
0.0001556297781
0.0001263313643
0.0001269743685
0.0001382583622
0.0001601367835
0.000205955214
0.0002116707425
0.0002549529806
0.0001946502991
0.0002294679396
0.0002480278452
0.000356260716
0.0003258250005
0.0002684068522
0.0003242683005
0.0003236767675
0.0002866807557
0.0002974351911
0.0002979396559
0.0004540103899
0.0004696001962
0.0004453211464
0.000325006894
0.0004163506148
0.0004237804443
0.0002660461835
0.0003641416493
0.0004140882305
0.000328921563
0.0003019661969
0.0003623960473
0.0004715627664
0.0002638417764
0.0003286209426
0.0003153594412
0.0003322539335
0.0003483793555
0.0002952475794
3.009709719e+11
4.519673268e-05
5.80408578e-05
7.265636945e-05
0.0001157043558
0.0001190347086
0.0002342367225
0.0001388464831
0.0002011631129
0.0002049616923
0.0002724624338
0.000232470063
0.0002353421077
0.0003263822454
0.0002561142602
0.0002002831752
0.0002942077488
0.0003705186121
0.0003391626537
0.0003913772891
0.0002804241988
0.0002889458463
0.0003539309547
0.000519112531
0.0003620004514
0.0003533853598
0.0003409105855
0.0003237110539
0.0003383606306
0.0003843754514
0.0003986193087
0.0003196515722
0.000278175538
0.0003600452182
0.0004880408781
0.0003067116932
0.0004229248884
0.0004013271208
0.0004265148852
0.0003124614027
0.0004587020403
0.000383763156
2.215241247e+11
1.329362904e+11
2.105343078e+11
0.0002112711945
0.0001067180139
5.480921261e-05
0.0001036058307
0.0001734316115
0.0003001362143
0.0001724745099
0.0002969814386
0.0003058242207
0.0002652041808
0.0002232509915
0.000301439905
0.0003497491866
0.0003379449179
0.0002835747737
0.0003620526721
0.0002824219801
0.000383289669
0.0003411548308
0.0003534488943
0.000273015611
0.0003751044433
0.0004529401475
0.0004155759822
0.0004187871148
0.0003604041321
0.0003987789512
0.0003400927794
0.0003127549085
0.0003309641702
0.0002534454572
0.0003222431938
0.000376803858
0.0003925454483
0.0003104590557
0.0003056847936
0.0003415854796
0.000473011521
0.0002915602368
1.280273867e+11
1.820226088e+11
9.469896072e-05
7.164328847e-05
8.374692499e-05
0.0002063753032
0.0001421496947
0.0002017537475
0.000144516296
0.0002081032056
0.0002433715842
0.000154063018
0.0002533056345
0.0002272968596
0.0002699637499
0.0002729532456
0.0002339730983
0.0002950137967
0.0004143565491
0.0003190055002
0.0002605840975
0.0003409877913
0.0002922800244
0.0003482156669
0.0003739115059
0.0002724042303
0.0004105907864
0.0003500065237
0.000369507207
0.0003127771573
0.0002938007773
0.0004671987073
0.0003267910736
0.0004453050254
0.0005945195148
0.0004570182281
0.0004642078663
0.0005216232891
0.0005080455158
0.0004722457308
0.0003929114379
0.0004142696896
3.119424553e+11
2.519211759e-05
4.335595274e-05
9.039335549e-05
6.326897048e-05
0.0002223379557
7.175922833e-05
0.0001807379794
0.0001615254726
0.0001991813131
0.0001802443811
0.0002269608879
0.0002222295305
0.0002380122308
0.0001614979175
0.0003281644511
0.0002735205309
0.0003418092262
0.0003700104244
0.0003561773914
0.00033806052
0.0003061199816
0.0002630753807
0.0003341812963
0.000357987756
0.000333360304
0.0003032967814
0.0002501772089
0.000302753156
0.0004071372501
0.0003197050718
0.0004228487143
0.0004005024889
0.0003563608442
0.0004633305213
0.0004691836231
0.0004480044614
0.000317953091
0.0003676659687
0.0004599222873
0.0003974317953
0.0003867381686
1.728248663e+11
1.364579353e+11
3.827690244e-05
0.0003013035207
9.630729067e-05
0.0001476887266
0.0001115750035
0.0002327520382
0.0001557686819
0.0002533677794
0.0002482577729
0.0001784684944
0.0002319284122
0.0002551148402
0.0002902818215
0.0002220954986
0.0002861820054
0.0002991235617
0.0003058599638
0.0002572595759
0.0002861732003
0.0004005746673
0.000269356453
0.0004315647002
0.0003769310817
0.0003285936483
0.000430261775
0.0004339904972
0.0004105888521
0.0004077435121
0.0003832252086
0.0004093823738
0.000366973357
0.0003442020776
0.0004521510165
0.0003250889995
0.0004610414576
0.0003918506244
0.0004010597607
0.0003716637858
0.0003659352113
0.0004689041789
3.702538497e+11
7.585503482e+10
6.842754719e-05
0.0001414894491
9.228128351e-05
0.0001169129201
0.0001444355884
0.0001334471869
0.0001957942315
0.000173101093
0.0003765122758
0.0002887640139
0.0002750423605
0.0002475521127
0.0002792931263
0.000311563106
0.0003923641756
0.0002619290456
0.0002836435188
0.0002977037931
0.0003186589408
0.0004480138056
0.0005012959532
0.0004607446695
0.0005273680586
0.0004004079287
0.0004174354601
0.0004238566489
0.0003135653367
0.0002931243254
0.0003090386689
0.0003017084677
0.0002920656879
0.0004429615114
0.0004076214879
0.0003880083025
0.0003944162544
0.0003295644298
0.0003736968684
0.0003867906797
0.0003307312334
0.0002860322866
0.00018762467
7.500958867e-05
4.535110131e-05
7.686957256e-05
0.0001088343144
0.0001578415304
0.0001693318313
0.0001503888267
0.0002146101159
0.0002470110046
0.000243658039
0.0002650322554
0.0002984085407
0.0003788188112
0.00029220324
0.0003113808891
0.0004118560531
0.0003690297771
0.00037041289
0.0003512655089
0.0004813978949
0.0004449200551
0.0003949082909
0.0003137858895
0.0003457762756
0.000311475342
0.0003476890049
0.0003620040443
0.0003995292349
0.0003433794811
0.0003675745684
0.0003772125087
0.0002852982677
0.0003130871193
0.0002490792294
0.0003758586975
0.0003563006896
0.0004133081894
0.000375425998
0.0003341832403
0.0002893542415
0.0002007082774
3.435056233e+11
0.0001155893115
3.607335087e-05
4.606807559e-05
7.164182228e-05
7.346144268e-05
0.0001765963287
0.0002278851924
0.000159917111
0.0001942273319
0.000270607419
0.0002563776747
0.0002762074673
0.0003585515359
0.0003771343189
0.0004072810843
0.0003693013404
0.0003867009005
0.0003830051359
0.0003259390897
0.0003799769953
0.000496459651
0.0004138005424
0.0003341444045
0.0003279224034
0.0004393851208
0.0004237009774
0.0003542377929
0.0002950527814
0.0004179622559
0.0003704899797
0.0002909246934
0.0002926553119
0.000395241674
0.0003543280171
0.0003761942417
0.0003659675248
0.0004112034947
0.0002139542402
0.0003028597448
0.0003265844469
0.0003419343927
9.627169924e+10
2.495401542e-05
7.732294291e-05
0.0001064841475
0.0001080790937
0.0001019629686
5.695805549e-05
0.0001566283081
0.0001826145774
0.0001226278437
0.0002265465546
0.0001840096761
0.0002212349146
0.0002363786795
0.0002173969469
0.0002799802802
0.0003126866174
0.0002356307372
0.0003085807313
0.0003685929388
0.0003436606874
0.0003016994036
0.0004208597204
0.0003061638228
0.0005559959545
0.0004089832679
0.0004872092835
0.0004069198329
0.0003615523688
0.0003313384379
0.0003665974744
0.0004394878859
0.0003537097296
0.0004195310353
0.0004133236664
0.0003721505077
0.0005111501134
0.0004842180744
0.0003849273134
0.0003669451541
0.000347165298
0.0003979595764
7.576471491e-05
8.984632337e-05
0.000323326376
0.0001443682019
9.080320086e-05
0.0001748189575
0.0001704283253
0.0002504046329
0.0001306730911
0.0001775681643
0.0002516455468
0.0002248936117
0.0003737771037
0.0002488147466
0.0002439643638
0.0002799092531
0.0003575509275
0.0004301531215
0.0002646727719
0.0002502221412
0.0002591757136
0.0002811129961
0.0003831266743
0.0003422755852
0.0003627033793
0.0003014951303
0.0003004687687
0.0003533438616
0.000303868111
0.0003485800405
0.0003597211966
0.0003615544207
0.0003925355059
0.0004362870699
0.0003873548159
0.0003472004114
0.0003784380933
0.0003789475175
0.0004900846488
0.0003677648312
0.0003511899649
0.0003998838122
3.226089764e+11
1.140428796e+11
2.094292033e+11
4.686419914e-05
0.0001257044487
9.712243018e-05
9.84193758e-05
0.0002645325602
0.000201593253
0.0001981671528
0.0003136591975
0.0002554949465
0.0002657058705
0.0003361082378
0.0003659563957
0.0003626534081
0.0003181302555
0.0003793622307
0.000294738539
0.0003209363267
0.0003440605254
0.0003419218949
0.0003078733468
0.0002887509276
0.0003490653439
0.0003807046453
0.0003867317513
0.0003647118041
0.0002636196118
0.0003863911086
0.0003473603635
0.0002687432905
0.0003271507929
0.0004527637047
0.0005826902878
0.0002025863561
0.0004462876943
0.0003554541974
0.0003996467665
0.0003482180486
0.000383719624
0.0002936529096
2.426461564e+11
1.087808427e+11
4.620337676e-05
0.0001577900713
9.58804732e-05
0.0001420950589
9.331934923e-05
0.0001555362023
0.0001317984005
0.0001740222923
0.0002458923566
0.0002191777128
0.0002746847137
0.0002539737415
0.0003046616858
0.000291201269
0.0002274508887
0.0003062142479
0.0002205537425
0.0004021284476
0.0003120780279
0.0001664348093
0.0003361195095
0.0003528866486
0.0003114813948
0.0004248928726
0.0003305909367
0.0004069307088
0.0004651769009
0.0003696087567
0.0003640774185
0.0004703771498
0.0003624076526
0.0003634141592
0.0003862571313
0.0003669333887
0.0003603387111
0.0004293388041
0.0003570506636
0.0003343068783
0.0004937832166
0.0003403108989
5.846327515e+10
5.853074438e+10
0.000107199082
5.961993249e-05
7.970860101e-05
0.0001041549139
0.0002084259059
0.0002382748572
9.190191276e-05
0.0002107724283
0.0002266229105
0.0002969731275
0.0002979623592
0.000302267447
0.0002307373209
0.0002686790026
0.0003395656648
0.0003850708382
0.0004128697696
0.0004925843395
0.0003691334533
0.0003411585955
0.0003404888396
0.0003258021456
0.0003748614486
0.0002600663262
0.0003321112262
0.000512089152
0.0004509599425
0.0003658363641
0.0004172064649
0.0003553171194
0.0003082568146
0.0003675823477
0.0003525239818
0.0003453494279
0.0003131666224
0.0003330171211
0.0002558484203
0.0003676231063
0.0003129497986
0.000336160283
1.85218036e+11
9.86843164e+10
9.392754234e-05
7.452865953e-05
9.670451754e-05
0.0001688195127
9.399984611e-05
0.0001466240775
0.0001614254943
0.0001761672465
0.0002580212778
0.0001995716633
0.0001998139289
0.0003304265571
0.0003932284835
0.0002996556661
0.0003108017556
0.0003364479602
0.0003749519672
0.0003502162501
0.0004350020105
0.0003551019523
0.0002459586668
0.0002983097448
0.0004127078027
0.0003580657376
0.0003347025429
0.000469916874
0.0003749963478
0.0003462993038
0.0003425092594
0.0004340410214
0.0004567066045
0.0004307697583
0.0005413734577
0.0004821026408
0.0004067537296
0.0003337220275
0.0004612847487
0.0003974918482
0.0003997410244
0.0002907294822
1.877134211e+11
1.001453655e+11
0.0001255485739
0.0001043425775
8.217842955e-05
0.0001213462346
0.0001268288298
0.0001485811352
0.0001196147451
0.0002367360163
0.0001944287328
0.0002288571679
0.0002465800067
0.0002870642951
0.000344654974
0.0002645619498
0.0002997780033
0.0003414752313
0.000260123127
0.0003344531099
0.0003882016938
0.0002983213801
0.0003826084778
0.0004067348318
0.000397227791
0.0003609953014
0.0005058418673
0.0003729934968
0.0004028566855
0.0003750991329
0.0004336587491
0.0003746247213
0.0004310456595
0.0002433341507
0.000359698584
0.0004243763405
0.0003985984998
0.0002940752939
0.0003997698818
0.0003696152974
0.0004091682771
0.0004068888108
3.771570859e-05
2.818788501e-05
5.015097114e-05
8.463462278e-05
0.0001134088155
0.0001156743802
0.0001517433323
0.0001498860075
0.0001685796275
0.0003255997287
0.0003100893266
0.0002337084752
0.0002720158592
0.0002841344972
0.0002886092179
0.0002821641827
0.000318103319
0.0003788948799
0.0004112296636
0.000325450334
0.0003064982345
0.0003035381265
0.0003212047783
0.0004517909195
0.0003648798023
0.0004415711125
0.0003741264267
0.0002829505401
0.0002495746988
0.0003075453027
0.0003800739177
0.0002914088763
0.0002642397547
0.0002562456019
0.0002990757015
0.0003874265244
0.0003771146254
0.000420213545
0.0003670548461
0.0003431533398
0.0002764414186
0.0002537501012
7.734034398e+10
1.161329333e-05
2.941093011e-05
0.0001371761719
0.0001625631212
0.0001376682932
0.0002146801981
0.0001504992352
0.0001579343347
0.0001592642612
0.0001685362535
0.0002462814041
0.0002520539441
0.0003218712746
0.0002980658426
0.0003359689355
0.0003285930058
0.0003193165208
0.0003172734171
0.0003325900466
0.0004032138172
0.000318457726
0.0003485243362
0.0003385453886
0.0003855855721
0.0002293439034
0.0002687868384
0.0002829135209
0.0003318171732
0.0003840872084
0.0003306312145
0.0002952227428
0.0003247314414
0.0002894990893
0.0002874365926
0.0003828637877
0.0003138487772
0.0003433389894
0.0003669114515
0.0004153060139
0.0004276456079
0.000372298459
1.454941792e+11
6.014007222e-05
7.188195172e-05
0.0001042194814
0.0002636120667
0.0001949915804
0.0001484222142
0.0003191121578
0.0001499767818
0.000176512809
0.0002849419447
0.0002717364753
0.0002463082085
0.0002368360409
0.0002446086258
0.0002477013279
0.0002310563249
0.0003385812795
0.0003394925991
0.0003814010084
0.000472380674
0.0004637703232
0.000360730967
0.0003594133512
0.000404347537
0.0003006081334
0.0003304937007
0.0003760086768
0.0003945211428
0.0003642993623
0.0004000519382
0.0004218447162
0.0004353100689
0.0003662742431
0.0004060691167
0.000322019039
0.0003493392728
0.0004051412735
0.0003059030375
0.0004239870955
0.0004556052329
0.0002846764074
4.129970679e-05
7.050240624e-05
0.0001308097666
0.0001046638876
7.984638399e-05
0.0001958029285
0.0003314760288
0.0002136650115
0.0001771897687
0.0001778901471
0.0002535839524
0.0002994695527
0.0002644659185
0.0003405055698
0.000313702597
0.0002921279971
0.0002927325684
0.0003221113696
0.0004044727013
0.0004066341048
0.0004941013708
0.0004289187349
0.0004470092195
0.0004091141804
0.0004095694206
0.0004921592089
0.0004085777879
0.0003414163522
0.0003522958515
0.0003150585617
0.000326179939
0.0003852551196
0.0003820561904
0.000374380265
0.0003768292966
0.0003201800955
0.0003375337315
0.000379260829
0.0003282621287
0.0003594951333
0.0003583895749
0.0002884552463
3.718234891e+10
3.274005847e-05
2.231639366e+11
0.0001446887182
0.0001012357279
7.940616092e-05
0.00010258772
0.0002132043101
0.0002452450262
0.0001905539587
0.0002772284905
0.0002295003504
0.0002240058973
0.0002576867903
0.0002834401613
0.0003063797287
0.0002615848232
0.000326560482
0.0003689484635
0.0002192139985
0.0003222620747
0.0003758899794
0.0003319025304
0.0003257180833
0.0003225990528
0.000362102661
0.0004107057231
0.0003246388481
0.000424828327
0.0003437866962
0.0002827880293
0.0002964096874
0.0002988818346
0.000398707115
0.000379923262
0.0003437917943
0.0003467949954
0.0003279857589
0.000326213944
0.0003207147805
0.0002558751207
0.0003786551504
9.870584247e+10
4.024483488e-05
0.0001137144143
8.233475268e-05
0.0001055054142
0.0001769983738
0.0001721834718
0.0001593695704
0.0001388473169
0.0001612403959
0.0002225211356
0.000202458521
0.0001968529734
0.0001269239043
0.0002966924811
0.0002440705662
0.0003262390854
0.0003620902165
0.0002119984046
0.000383702249
0.0003180198078
0.0005067286955
0.0003705453642
0.0004088776249
0.0003693245183
0.0004467591403
0.0005015525349
0.0003999677241
0.0003456925734
0.0002988066735
0.0003116347055
0.000284181974
0.0003978957453
0.0004081435004
0.0002716253377
0.0003943193618
0.0003509510071
0.0004186920552
0.0003803793194
0.0003242011402
0.0002916531335
0.0002535173941
1.808016573e+11
9.70982927e-05
2.807496555e+11
0.0001075528785
0.0001464048594
0.0002352220436
0.0001409622095
0.000190928729
0.0002585321156
0.000240767294
0.000191585916
0.0003063664876
0.0003064954753
0.0002317345786
0.0001963826304
0.0002321429971
0.0002646014193
0.0002701687088
0.0003972181837
0.0003913276807
0.0002342485262
0.0003625006595
0.000338514601
0.0003050590186
0.0002922407556
0.0003609125361
0.0003634087908
0.0003449461782
0.0004165871588
0.0003604117347
0.0002610277847
0.0002676103175
0.0002912971703
0.0003801449936
0.0003248784794
0.0002455188739
0.0003302748503
0.0004001034135
0.0004143485672
0.0004350628181
0.0004234887758
0.0003545429789
2.078727762e+11
8.398234862e-05
0.0001418489577
0.0001638563741
0.0001345503355
0.000106210829
0.0001538687908
0.0002537532192
0.0001895807179
0.0002281889065
0.0003094040317
0.000232726486
0.0003289543278
0.0002321487686
0.0002982273508
0.0003346457023
0.0002809814097
0.0002867056748
0.0004202961392
0.0002545857504
0.0004042516912
0.0003094425413
0.000337993969
0.0003822415615
0.0003428303228
0.0003630767196
0.0003822115784
0.0003838437413
0.0003914282975
0.0003779958432
0.0003584643283
0.0004051168388
0.0004201897411
0.0002915723012
0.000337740939
0.0004760801507
0.000387665742
0.0003480564585
0.0004117875053
0.000409970632
0.0003308166342
0.0003171472551
1.595809311e+11
9.495676799e-05
6.933054807e-05
8.881486485e-05
6.632300201e-05
0.0002012294227
0.0001826977158
0.0001661077385
0.0001506553117
0.0001853478427
0.0002357609995
0.0002350283889
0.0002982867475
0.0002579936904
0.00029711876
0.0003448634951
0.0003128422642
0.00019252997
0.0003183859606
0.0002294644228
0.000359856034
0.0002767314941
0.0002812932811
0.0003515380292
0.000332518449
0.0004552995591
0.0003576617655
0.0002706179807
0.0003203953667
0.0003581650199
0.0003754744711
0.0004317706234
0.0004683440084
0.0003347372164
0.0003501176825
0.0004379006226
0.0003816580812
0.0004055345619
0.0002527492481
0.0004037064771
0.0004103879973
0.0004704015335
2.254385704e+11
2.743279137e-05
6.539988657e-05
0.0001112855896
0.0001863810606
0.0001571491809
0.0001557161676
0.0001636349957
0.0002382043456
0.0003586908702
0.0002613945361
0.0002136995896
0.0002930995109
0.00021673218
0.0002558786789
0.0002887958549
0.0002755706069
0.0004006140545
0.000275131408
0.00036460986
0.0004066901264
0.0004221781951
0.0003074468158
0.0003629335015
0.0002913470779
0.0003387478124
0.0003222621533
0.0002615986669
0.0002752967628
0.0003385971121
0.0004384101534
0.0004033700997
0.0004162622752
0.0003443885316
0.0003323929696
0.0002898647706
0.0002557884327
0.0003449471096
0.0004086786819
0.000279024872
0.0004663484429
0.000442115213
0.0001577869475
0.0001165212957
8.353607346e-05
6.130125312e-05
0.0001555433537
0.0001165972338
0.0002229206855
0.0001353153394
0.0001624193386
0.0001595284829
0.0002831673726
0.0002372943765
0.0002618176202
0.0003235096607
0.0003334618456
0.000344438115
0.0002555344772
0.000267838352
0.0002652136694
0.0002333976928
0.0003797460702
0.0002735451671
0.0002310278838
0.0004151102665
0.0003928291353
0.0003555015301
0.000311277056
0.0002339137135
0.0003142444253
0.0003615680771
0.0003314096637
0.0003954205523
0.0004362802089
0.0003111183119
0.0003968650904
0.0004189766114
0.0003693635397
0.0004628120947
0.0002482460741
0.0004283277704
0.000303187013
0.0003763638283
2.688404647e+11
5.129922798e-05
0.000118828517
8.195908083e-05
7.999343944e-05
9.690302623e-05
0.0001534457712
0.0001500915135
0.000161781814
0.0001307782422
0.0002253758106
0.0002073056581
0.0002097349773
0.0002045007526
0.0002750523631
0.0003155679311
0.000361066866
0.0002267598132
0.0003875582356
0.0004350664364
0.0004074349588
0.0003588224827
0.0004770842042
0.0003773224436
0.0003996660104
0.0003551369727
0.0004992039898
0.0003920004621
0.0003379671174
0.0004309334349
0.0003010990856
0.0004819471203
0.000398789239
0.000469201185
0.0003967050668
0.0002903854602
0.0003164658337
0.0003451860292
0.0002860838149
0.0003988699356
0.0005189201832
0.0004654746472
9.559821725e+10
9.233604606e+10
8.613911296e-05
0.0001370556761
0.0001154588532
0.0001551487753
0.0001942322815
0.000307763742
0.0001709332358
0.0001871622879
0.0001719430498
0.0002245057149
0.0003021836049
0.0004401337458
0.0003618573222
0.0002881745933
0.0004720802161
0.0002841741966
0.0005777989977
0.0003403648969
0.0004889487844
0.0005175078411
0.0003567368506
0.0003164102059
0.000460997766
0.0005476147834
0.0004917147146
0.0004930667255
0.0005262806796
0.0005170039852
0.0005382601503
0.0004767382378
0.0004777478744
0.000566710263
0.0005121493849
0.0006511911155
0.0005943038732
0.0006087843588
0.0006720151516
0.0005129428526
0.0006620200039
0.0007470534222
6.163645404e+11
3.983347426e+11
0.0001723266524
0.0002186365873
0.0003537831121
0.0002725231572
0.0002530050027
0.0002383031396
0.000276547526
0.0002391253292
0.0002537588995
0.0004736170639
0.0003963130304
0.0004507506227
0.0004624015201
0.0004688459385
0.000437480039
0.0004250549247
0.0004638010201
0.0004046081666
0.0005837488944
0.0005669728177
0.0004582509296
0.0005787714664
0.00039180172
0.0005122553993
0.0004638754736
0.0006267028914
0.0005946482499
0.0005435371663
0.0006464846013
0.0004888205286
0.0006274764897
0.0005538316179
0.0006729199246
0.0006404382667
0.0007641311536
0.0007843457523
0.0006528545586
0.0006908205593
0.0007403586347
0.0006290821131
0.0005184706267
0.000162260153
0.0002267426668
0.0002074604767
0.0002807907441
0.0005819660139
0.0005063959833
0.0006682284202
0.0003515520709
0.000374584033
0.0004794848094
0.0007184378333
0.0007564914796
0.0005500242782
0.0005081271503
0.0008052059599
0.0007001904882
0.0007933710294
0.000472304796
0.0006397774278
0.0006089190274
0.0005541696722
0.0007119546072
0.0005343166841
0.0006179895999
0.0007114398445