/*--------------------------------*- C++ -*----------------------------------*\
| =========                 |                                                 |
| \\      /  F ield         | OpenFOAM: The Open Source CFD Toolbox           |
|  \\    /   O peration     | Version:  v1706                                 |
|   \\  /    A nd           | Web:      www.OpenFOAM.com                      |
|    \\/     M anipulation  |                                                 |
\*---------------------------------------------------------------------------*/
FoamFile
{
    version     2.0;
    format      ascii;
    class       volScalarField;
    location    "3.989";
    object      Tov_O2;
}
// * * * * * * * * * * * * * * * * * * * * * * * * * * * * * * * * * * * * * //

dimensions      [0 0 0 1 0 0 0];


internalField   nonuniform List<scalar> 
50792
(
8832.475194
5296.008992
6664.067314
4862.053673
6360.402041
7230.400489
241.4162301
7410.311513
7508.196951
1936.705216
7154.887123
5915.946638
7183.963178
6873.909014
904.8001689
7083.009527
2992.601951
3171.846149
792.0573171
883.3475742
742.7034143
1751.120265
2828.575855
2501.154289
1562.547906
825.1429273
7348.614082
4699.224566
3038.819004
4087.863137
4243.79125
2886.293791
1184.03935
862.8166954
5554.813276
1111.247643
1241.605665
2835.118504
1365.156966
1129.839179
1576.470613
1398.92752
3410.403692
187.6087384
194.9088385
258.3882523
251.2916322
283.8384544
5033.428373
6285.376089
558.3324555
6213.857612
1908.161107
5398.44049
3874.921518
2432.637733
2711.503797
5425.884343
1073.674747
4357.948007
2061.270956
5025.763715
5317.219067
6344.158718
5732.565139
5139.651048
4560.269154
780.2432561
4996.387881
1886.207675
2371.724588
6102.477799
5695.920435
7530.052313
5938.42866
4596.09782
6144.003075
5316.868364
5046.873268
6114.944893
6109.288565
4125.821818
3198.803381
1015.040491
307.4606002
200.247067
165.723856
164.4590819
205.3005048
210.5492902
5607.380536
4393.151447
217.6754884
6959.796168
1690.464176
2576.060778
4611.855311
2891.500266
4588.538205
1308.762804
2083.654192
7766.835184
6093.601596
3090.874668
4152.883234
5133.975827
4102.448256
5498.98054
1837.917136
815.6811441
2861.089627
4011.09134
3983.195067
1549.314991
2880.146514
6634.690235
4339.355001
2679.918258
5929.540744
4932.109833
2656.942472
2428.206918
4261.936435
2170.511611
6476.318278
5328.297363
3429.872239
133.0976157
205.6864284
188.8977931
186.2943559
188.7911565
197.4514893
184.6174464
5604.54088
2535.419902
7111.789701
7903.832961
6010.154287
2784.048799
3904.137412
447.0002003
8446.960545
3621.520866
5686.289814
7783.154502
7392.076791
6732.470907
1583.053042
4362.307675
1929.480782
1535.692895
5262.876256
6174.381456
4735.307025
3177.138166
6346.997928
6349.133742
7077.995302
5402.89361
5716.79541
2431.253202
2694.667833
1416.873904
5966.867676
5337.459028
3167.353362
1644.9111
7029.766891
85.42226982
5962.305077
4348.00825
190.2665599
185.6464561
6797.380519
4030.943377
7134.951466
1682.035789
5928.16613
2553.578627
5753.752732
5348.673047
1990.153284
3656.723386
5974.357198
3827.026605
4729.263767
5782.459552
973.7449149
7002.97506
6970.020264
6019.003418
2815.574418
6494.024193
5097.093272
2100.420481
5902.561194
6324.322941
6339.11109
6623.586727
6240.283719
4150.342954
5777.134503
1461.291044
3816.816655
3878.446398
6019.721616
4710.436175
5010.816151
1995.438808
164.7429449
160.3409793
135.0916536
164.675985
7252.951388
158.8569551
1295.54915
7753.520004
6230.636046
1488.053676
4005.193351
6892.566939
1136.869191
5798.507265
4210.351509
5746.099635
2529.109266
1054.745227
4720.644276
5348.330961
2370.035894
6591.437598
4584.301862
6000.123229
2689.576424
4208.650894
4408.26393
6536.127549
6765.650771
3449.182291
4562.220042
5539.881578
6758.610018
6182.611785
5637.245598
3926.789008
2289.02843
4457.503211
5008.554301
6266.789373
6717.945428
2785.282614
830.0571322
12.36221331
17.63270552
149.1755208
186.2260239
2183.054499
6846.524346
1560.527836
4838.405802
5327.867261
2788.00034
2098.435622
6307.932587
2069.751868
2846.134881
1293.007576
3338.28811
2127.930271
4083.745025
6128.847033
6595.702899
3645.161598
4246.420249
2918.44746
4167.382488
4676.612927
6645.110521
5917.731006
5272.133082
5288.737976
6675.028334
6256.017682
7680.198385
1164.021433
1734.236392
518.8793475
3547.258248
3568.248093
3729.379796
5052.086266
6374.152125
2426.665346
66.9589146
143.0434364
196.4277528
253.0973946
235.7885528
4144.1633
2386.282654
3624.954206
409.8608716
5026.182447
4322.851913
512.2509836
873.946896
577.1759584
1812.729391
2673.498749
968.9194081
1529.173312
5127.367039
4812.304731
5102.332221
5492.389681
4133.990096
3490.691141
3449.25533
5860.756125
6701.4622
5859.140918
4661.913093
4724.902564
4695.870961
4405.927195
2707.38237
7152.93313
4526.043795
3282.553152
4787.646292
3783.916852
6219.211006
2532.453472
5358.560832
4958.550431
146.1545535
139.9420535
6420.521158
116.1740994
119.5684867
121.0672659
158.6955621
6086.2628
558.7085621
6290.714097
1010.277628
2659.318231
168.6758504
1203.715677
4966.539603
1092.25395
560.7806425
459.5527688
3531.865912
4513.11927
1328.968759
7805.656939
4334.273158
6989.789935
3813.298876
1186.374394
3925.243993
4698.805915
6514.730846
7121.016804
6205.696595
7060.739174
7411.170798
4379.7325
4229.089021
6191.991192
6572.608404
7848.84177
7255.267429
4657.077918
6824.529919
2339.239938
8706.969738
173.7856309
8490.867445
155.4000305
165.0912477
171.9385308
4736.508066
914.9652738
176.8092557
5170.431479
3885.357984
6371.177566
4392.586425
5186.071945
8828.566683
625.483379
4210.997878
321.9966611
4578.707654
6259.312495
6670.078556
7233.103997
5366.543323
7115.948461
1047.88697
1285.628453
4258.041976
4340.578724
6458.511791
6719.153223
2409.12416
6210.001003
1858.113507
6755.576992
4315.149864
3979.061171
4220.529484
7409.589419
8221.901561
4074.917155
6675.322938
2798.880782
7657.698538
47.63590219
4623.027628
128.8330578
138.0674448
195.6618346
974.372984
3401.234655
7768.487473
420.8394223
6591.610923
259.8126004
7804.348816
5546.160928
8517.145333
4120.438158
6973.040585
2539.901754
2615.085647
4026.726498
1326.148442
6328.539677
6707.05227
5945.932614
1293.199653
2016.546137
3179.159535
6257.011392
6934.925572
7841.85186
5569.390394
3926.108171
5454.74039
5947.90796
6253.353853
6486.073732
3306.872799
7254.391596
7394.645189
5055.27557
5934.050232
2212.603654
5498.176649
8676.052085
2759.830614
145.6634614
170.6749494
175.2429337
4581.274048
1687.560549
369.3853041
197.5916508
329.6426188
5198.833451
3190.555254
7570.709383
4717.544399
254.4657728
985.8053153
5021.082683
6094.622449
4266.385882
4561.6731
3102.321769
3739.174
4483.063899
2096.138439
6398.035971
5061.135854
6469.438357
5493.412983
8267.792883
7728.689051
6804.204189
7176.862708
4780.064965
4359.202369
6016.069818
5508.886003
5256.892928
4319.166338
5601.989161
2694.986978
2896.819138
1264.694705
7833.635848
215.7828839
235.397773
200.9328628
4831.041196
7520.118034
528.8909919
2819.043575
5457.165409
1884.269299
706.3005903
2570.869823
2061.570866
5523.797784
1027.236235
1772.609104
3866.450292
5724.974088
6696.438291
5664.066264
5227.742897
6242.324968
3571.674584
4290.322219
1228.771588
4412.339852
4530.605545
4779.419481
5578.071864
4909.32492
5032.40754
6233.474582
5381.294909
5083.534707
5458.260493
6601.799411
6477.697283
4688.278542
7118.893836
4196.214389
3591.838522
1874.597574
7625.700234
276.0670448
283.6717278
282.9915387
265.633719
7782.972634
6397.209147
6477.613776
263.804277
4696.996489
8123.860836
241.926177
5594.010634
2628.356438
7062.297919
1478.51417
3407.189268
6252.085943
4497.2059
1024.929046
5545.566554
7231.520383
5909.253669
1640.809769
6019.697135
5296.994815
5289.232934
6271.95307
5641.977283
5211.794986
6642.166912
6955.452628
3089.014658
6841.979937
7553.300002
7673.616436
6410.285703
6756.827905
6194.556009
5308.653994
2931.707806
2919.67087
209.9082884
206.6371159
247.5784801
218.2650105
441.3952019
4634.111249
6366.868043
207.1183548
3083.722523
5696.973623
4071.179126
561.4844114
5666.457124
2194.266389
5621.292439
1972.864864
4146.815714
6598.316149
5302.683482
1059.212277
5828.020859
8039.088378
6933.756618
6653.839348
7456.506356
6052.061876
5838.925716
6543.487354
5876.104189
3583.308395
5189.338267
6998.419198
6155.460484
6252.337341
5119.184214
7305.757676
7119.305817
6956.043516
7250.049843
4803.829179
2185.437657
3061.844725
152.2445948
168.4345051
166.0941504
2948.616087
4146.585121
4141.508749
3765.981862
3261.861543
5072.972729
4193.974674
2724.33004
484.4801174
6670.230175
4558.456726
6610.398111
2049.922077
6305.899324
4443.777951
6476.908839
2926.705619
6443.375444
5551.401357
7307.244925
5156.218861
5956.33739
6293.360158
5514.700635
5481.018351
6365.920012
4488.914157
4080.528397
4624.955491
7603.89227
2465.803872
4059.410989
5858.646085
2660.787758
7015.841007
5540.933942
5353.566503
3326.139867
2105.618761
85.57515404
132.2498001
141.8520869
147.8185156
154.0251521
3699.676025
624.9393993
3827.111411
6801.036478
1187.462032
968.1125421
1524.876116
5911.805602
6799.677167
7109.189182
6925.01842
5783.402305
6628.413336
6200.12062
1585.941781
5632.918976
4440.696685
7124.500105
6557.324516
3013.460794
5395.180673
4916.319044
5604.921881
4358.028802
3584.814169
4613.427171
6595.240562
6095.554317
1955.458747
5236.588456
3415.804072
3837.068585
6065.024657
6395.779164
5989.69354
2229.48197
2842.395052
154.4733678
204.6639263
190.6801175
180.317875
4076.708059
173.9015268
2430.863388
6585.907998
1187.253744
3632.73684
3752.635211
6673.685924
4157.272511
591.5475014
6587.843604
5083.81214
7001.792774
6521.925899
3939.351757
2575.569408
5672.519627
6596.437436
7193.67571
6135.366778
6269.076423
6839.20436
4598.449303
6779.919782
5835.884902
7266.711692
5499.464922
1854.904069
1071.461639
3567.460184
6371.198028
6146.01535
1839.661664
2290.173348
6547.572162
5212.088114
739.6513644
7057.235592
124.6788597
132.3867207
3517.571602
161.715202
5366.767841
7818.712308
1948.636511
741.0466855
3208.98504
4527.133819
3808.707462
7127.443773
7430.459571
4093.936693
3008.224528
6839.938682
7010.29441
6132.18545
4826.225482
5238.455914
4576.492134
6651.312886
7845.734492
7206.752881
1212.115867
6170.443979
6339.252075
5877.032794
6796.472312
6786.407988
7506.616254
5825.343155
4726.762804
5464.34472
5119.355272
6851.128282
5022.538278
2578.845085
6212.814258
4913.644943
1515.017757
5856.410564
266.5941954
225.4549233
6633.551056
4310.995674
7257.5679
5256.309986
241.0402661
404.9963649
6477.253118
4644.621201
3065.555445
5494.455212
5117.542644
4251.027415
4361.346799
2887.77115
5554.068502
4907.804196
5961.619663
5357.185445
4528.729971
7086.828172
6755.95423
5466.133383
3214.261116
4322.843865
8360.87038
7498.631645
7564.983162
7903.187786
6538.507184
6243.969
6588.126457
5112.475362
2700.958696
4870.679012
5179.017154
4512.18917
3214.306488
4941.380336
2964.622454
2951.773994
180.6052531
5685.280868
197.819733
6786.089464
6591.679026
1501.860018
5089.59925
4202.126625
182.8355554
179.9574782
3053.074416
2348.378828
1311.892998
1681.400746
7073.883521
2253.524067
4262.917974
5721.057245
5841.086254
5240.894694
6601.028774
7113.66782
2603.693443
6505.113068
4914.599587
5465.536726
3872.311901
6575.637188
6894.547783
7034.293668
4973.503834
4931.300958
5622.976348
4886.412594
5596.526132
2189.851827
4892.657465
2136.456664
2772.613086
6589.536284
3846.437646
9599.064149
190.7057505
4604.151448
3599.237048
6877.631084
8439.086176
9546.94791
2026.149972
5672.166266
6139.622796
4776.824335
343.2666413
819.8207235
558.9602995
5630.859916
3040.869572
5354.338022
7527.680928
4432.502083
6948.19437
3774.583441
4556.812811
5683.236599
6217.258989
3041.330276
4952.351087
4461.729153
6855.681344
6113.354286
4637.783328
6305.553242
6352.062086
6817.085526
6241.84316
5336.36936
6881.67216
6338.694259
6509.51356
6555.027388
5579.967197
5804.812828
2297.705275
266.1533556
69.91726441
243.0206619
242.9868816
8667.612762
7385.138208
4869.354694
8548.681056
3277.758766
2750.560554
7532.964926
1305.699026
4208.09234
4395.49007
6524.063423
2306.695033
718.163741
6038.713707
6985.000593
924.2037417
1558.225577
4250.311106
5915.958719
5948.992795
4768.981716
4679.420576
5562.309788
5503.212125
2663.789048
2493.81083
6192.596333
7642.076121
7937.3556
6081.156054
7551.182265
2742.659431
6546.994726
5271.8499
6624.523586
1833.03424
4685.578852
2997.361003
3250.67469
249.7349412
6794.796957
8841.501519
1408.124739
212.2524539
201.3843342
2184.471975
9553.713652
5734.18172
1827.171163
6134.369003
2748.877803
4523.287051
7463.650681
442.5344909
840.9722503
7042.519118
1512.135852
2881.223413
2261.889565
3492.437186
4072.704208
1235.460616
5670.709944
6414.445571
6987.192722
5474.924653
3042.942376
5081.791944
2437.569474
8107.316957
8554.337289
7403.272565
4670.990378
2486.94497
6267.216201
6838.02353
6170.586472
4938.903074
5905.036167
2283.608097
306.3265715
5373.806514
8085.332268
186.8300626
175.503851
154.4195178
173.8925694
5368.77393
6245.016301
3625.753928
7645.021357
3011.533162
6162.519665
7295.566091
5007.577507
1519.936544
6071.733581
4645.434064
3851.468239
2851.28201
2761.061453
5797.969543
5407.997606
2266.064368
5252.935568
6851.263367
5621.831214
4687.925716
7875.621959
3278.773113
8041.689996
7255.0619
2967.0633
6323.835572
8054.984549
7675.80735
5235.427315
5459.084646
5648.059431
6321.527996
6411.258572
3044.593847
1040.326873
8677.886488
204.2533129
206.8947433
191.0842341
178.2046445
7493.002351
171.1111706
6823.765758
1631.902731
167.3624188
6354.819892
6819.555978
6216.173621
6559.333744
5716.72853
7187.405465
3340.880123
2352.77338
1447.042238
5666.964831
2618.100036
7347.529068
4047.093519
2783.490762
5354.876615
6756.594922
6629.783648
4281.860835
5027.082883
7103.454672
4568.239256
4493.461301
5073.76486
6510.553203
8035.745367
2441.719816
5277.07973
5597.605104
6731.23381
6569.727893
2485.184359
2730.05982
134.6740842
132.7743228
178.2141121
192.5569518
1487.310488
757.8632515
202.1965752
197.5241615
1017.355327
5835.490233
3104.362413
5881.934861
6442.953174
5095.208054
2775.138152
4827.657083
5750.764464
5329.871775
7150.617604
6836.50066
2143.329664
2699.371538
1394.986434
1747.956402
6075.440353
7097.911276
4711.199247
3053.163789
5738.38578
5840.272261
5746.622188
6228.931104
5816.715143
6277.831074
6387.421617
5023.800733
6688.042394
1708.871102
3775.911257
3350.6741
1973.645907
2655.000613
336.8356083
440.2318796
321.1013182
299.5083859
499.7710691
271.6800229
224.99581
247.4317165
240.5608488
853.5360797
1747.800864
4223.209663
6067.738247
2947.249104
2415.367185
1644.300477
2792.772655
4358.333181
4675.831341
6868.298293
4985.91973
6827.089921
1578.903014
3807.932464
4566.422579
6373.052364
6280.517246
6644.256439
6106.740417
4657.853778
5380.554029
2010.221587
7209.71128
4595.139867
6988.913648
5381.570503
2534.998617
5191.304266
6068.427278
2667.376528
2207.955272
1940.323816
6648.609167
229.63117
272.3418575
281.2063131
208.9254939
424.1217244
3794.19625
6156.687634
4218.842544
692.2714064
1471.713866
7519.191352
4500.925839
2563.891192
6905.339748
5349.191294
2589.651138
7127.16248
8545.614158
6966.704304
5984.689704
5177.724379
7354.95694
7630.211641
6569.660355
6493.832396
7334.802867
6438.338273
5864.868399
4830.220797
7523.558964
4123.04643
4328.379234
1795.369408
5447.483868
4208.518147
3158.983048
4590.954471
6877.291808
4780.314235
1348.545971
4864.464307
6581.585962
7868.279088
5940.138752
170.1873357
2493.11196
6576.687665
7438.583967
6679.784978
3147.647559
259.6108951
3641.676936
7095.774243
3635.548805
4088.998004
1928.316521
6368.94406
4575.772917
7273.142798
5014.077059
1338.506715
4694.868627
4281.552928
6404.101142
7053.82747
6808.223879
5560.030615
3646.970377
4523.696812
3090.105623
3697.955194
3180.047105
5950.570353
5354.967562
5417.121486
913.5250395
2698.768999
3404.156609
4851.459825
6720.783652
1507.818094
2910.331453
1142.008774
4656.623131
120.7966085
133.4348121
131.3915418
4024.289654
8140.480073
8260.687383
7778.013333
2284.193849
2518.486628
3770.096009
2442.335435
3819.456565
5681.985382
5241.071645
5881.05607
1774.909146
1143.900101
1485.06928
2666.734016
5520.09263
3936.133889
4601.658202
6953.800824
6839.695194
7528.83593
4434.988174
4865.964627
3859.489466
6663.106578
2537.067307
1023.199199
6470.247361
6439.250529
1575.936876
5466.713403
6139.423863
7356.84166
5997.733623
4702.338606
2187.38156
3583.708081
7218.087501
2411.836374
283.7867293
281.7484807
5973.303799
2429.733402
4872.279432
3126.039694
7654.144682
7620.543915
7450.367241
312.7697813
443.5474775
7434.490163
7845.758634
615.6411671
1441.422919
3659.345466
2955.798141
5796.353833
5520.201471
7087.488776
7575.908452
6230.198866
6831.684093
5650.553074
6661.492901
3614.248284
5865.411561
5878.485761
4599.137616
4672.87657
7744.56483
2136.057669
5306.986634
5749.523459
7189.032734
6736.086318
7004.485612
5015.916766
5376.493525
8534.020531
194.8512615
6711.997946
241.2325544
231.4260615
7998.807436
191.2825523
255.5528346
3031.939318
7957.028571
6501.885676
6478.091935
4081.591135
3691.584941
4749.86953
1703.254314
534.6919351
4934.639047
4347.584685
4801.849846
5357.679284
5377.607746
7737.658347
6475.841614
5832.49979
1274.271289
851.207877
4969.826412
7064.693856
4279.607464
4047.121425
6679.278329
7263.448214
4891.031178
5753.025299
5421.344478
6794.595036
7617.970215
6506.590983
4087.320781
5592.285084
3144.380698
1950.110534
71.57494384
4176.980396
161.5638312
6134.161904
184.4498469
191.4116148
6006.443927
7390.548144
8110.358498
4130.279468
4108.654175
4242.034554
4670.321279
3536.370782
2601.967405
1167.454225
6912.790739
4378.846307
4776.21239
2545.672065
2060.882687
5067.158089
4162.076576
2493.10347
5684.251894
3181.007801
3815.161286
6311.474691
4102.262555
4350.281323
3779.149733
6774.366711
4848.818762
4994.616957
4732.751744
5300.566552
6874.392395
4539.038459
5377.402769
3692.755454
2269.277652
6902.50141
228.3953961
6719.648891
297.3436354
6125.334651
246.9140894
2094.291734
4100.955902
5370.555699
8440.304936
4515.1769
3728.323409
5227.400164
7755.495519
6388.873728
7103.733709
6687.498408
8238.648238
6654.985507
2693.231813
1780.316144
3374.162128
6292.937282
3233.551831
3661.789154
5508.326608
4122.415204
3167.14324
2632.782299
6785.395446
5316.878358
7465.398086
7006.241691
6121.981568
1751.079314
1589.59892
6193.613419
6539.403315
5654.992392
3872.527757
5816.450876
2805.300633
6285.126206
423.6324647
6380.746655
6343.969449
160.3566402
163.8779536
177.6040326
594.3443552
5269.009834
8067.056883
6450.752477
7769.272085
5506.097049
1516.057706
1407.575507
2644.42731
2077.988538
6373.361281
1727.87329
4763.834324
5109.360996
4199.827475
2974.864849
2556.79975
2168.587154
1960.868026
6016.062904
2077.330327
4624.278507
6942.035851
5277.621364
6620.939153
7347.117063
7588.645145
5972.202414
3412.413301
4538.994606
5687.502875
6842.000453
4758.215887
5683.109952
3858.657254
1599.156102
36.82001959
170.1949494
195.3165695
196.6030077
435.1530584
1274.106661
619.7581587
6980.076614
1112.36362
6262.20217
7451.134883
4576.542394
2463.945779
1888.482927
1267.198266
3572.691902
6466.67261
6897.596041
3059.795157
1258.289103
1825.474476
605.6563881
5238.347093
6075.019255
2521.894758
2559.233482
6120.089004
5468.000325
6630.263516
3467.705293
6529.202224
5325.373121
1891.876829
6836.372816
7218.854179
6091.343538
6215.517688
6271.019364
5414.129595
5329.523575
2285.51183
2142.132566
154.6316099
170.5200975
184.427005
189.3390781
6554.358387
159.9998273
538.0328463
7293.302405
6436.883605
6436.205384
7869.18635
1940.635614
5738.551621
4169.257427
1115.813097
6898.44445
1160.027991
6531.006544
5766.206545
4970.841459
7079.089455
5263.53342
6564.294664
3731.657343
4605.33685
7433.309453
4901.077163
1766.141935
5457.002003
4847.127479
5004.006554
3899.310353
7029.516217
7211.55043
6479.854574
3821.026576
3019.788503
5738.490727
3500.292717
2811.959393
1592.986989
3937.166239
4.056071329
87.08310968
125.1457836
199.7238247
205.0725014
7361.35285
194.8885266
6544.524561
5757.910526
5631.346522
2528.638331
2521.871316
1623.772487
3522.471023
6545.414315
2599.846685
3585.395932
4403.790381
2249.587333
6197.070096
621.3804603
244.8133896
6116.503253
6384.740448
4308.044028
7826.082184
3728.027189
3015.359752
4824.396902
5231.280148
7876.036157
7307.507947
7153.777795
6256.245959
6668.466139
4386.193694
4082.373287
3800.095419
4678.806379
3029.928038
3944.426353
12018.67461
237.7593813
228.5709305
221.4438404
1391.964027
381.9719806
7010.053729
4293.701381
6647.001873
1866.65119
338.821844
3111.0924
791.3617032
5849.743083
6678.720826
5479.699027
5965.063673
3293.607367
6453.622181
2607.042642
6809.156268
3717.397419
1418.04016
1131.015414
6215.651662
5253.144656
2410.957635
2954.116334
2860.014108
2459.202174
6536.114953
4784.200899
5696.943883
4928.642466
5735.259248
6273.671875
2871.080952
6743.825826
4810.656341
3804.325205
2664.832371
3487.60234
6707.602407
168.754869
165.3451194
181.430031
186.6141207
4467.970838
1427.571676
411.3153777
386.9170145
229.5194194
708.0841795
1337.652587
6078.002019
5339.88077
7506.247344
2569.61218
6159.603846
3963.777876
6484.089514
2634.877638
4388.426609
5030.114279
3174.66336
5630.642802
6180.163698
6724.110444
6021.455602
5533.495371
2553.223285
1952.703725
4108.43521
5777.984266
760.3170655
561.677772
7266.806305
5103.421419
6652.175238
7482.387682
3993.309915
5043.292044
2464.562414
257.635632
699.5457709
186.6337703
177.6490093
143.4098826
9830.346666
4294.57765
7808.956436
6947.876035
198.8008753
5575.757559
7955.005622
2290.732703
7073.141007
3662.85044
326.3429705
1254.314158
676.5628512
231.1091771
1430.082088
1133.637271
3475.846779
2972.939944
6876.73351
4726.141199
6041.422355
6402.936036
605.6577341
227.4667257
554.6759434
2122.094301
474.6228192
1517.69702
1356.873214
754.3491052
2547.005522
1717.495972
5025.006877
6762.31847
846.1034612
1507.50224
1675.979531
1721.151949
983.0478835
1091.917343
655.2687238
1975.486243
4039.925337
7454.392562
9465.82382
8581.012655
8208.995788
5655.288457
7085.479648
8503.333493
6359.30068
6572.619878
8601.984502
8252.665415
7941.096073
7261.792535
6658.261228
6749.81904
6835.598779
3051.355251
5569.61071
5665.573756
5353.110444
6791.060349
6548.200808
6834.697128
3699.040434
1775.53195
3418.813973
3509.963413
4860.315568
3764.320309
4408.142581
3237.46509
3480.429781
4247.27096
2333.171602
3877.064458
2208.167787
2153.603477
2677.313665
4627.936032
3899.403575
6528.837938
6417.6083
4912.251638
6233.126801
4092.879044
5041.128038
3731.480549
6439.191173
6276.764841
5183.501861
7682.815974
8650.640262
6572.982038
6987.800638
8190.562064
7467.06137
6389.528504
6401.88437
6255.815512
6101.575402
7165.036772
6282.164098
5927.724306
6315.488933
7064.793447
6432.733774
6683.144135
6721.873602
4924.170989
5521.268558
6070.982441
4656.555159
6406.79382
4528.099812
4690.19646
4840.898501
7004.693055
5323.713699
5012.664536
849.7980161
3200.368581
5446.957058
7756.504321
8482.281885
7822.972759
4174.500007
6097.96095
5134.939967
4826.945051
5513.693365
4866.127439
4438.870146
7656.273681
8399.373818
7348.117807
6837.974451
5591.667733
6914.388268
8068.836196
7824.272162
7797.550379
7825.168584
6589.010951
6586.302185
7611.915742
6854.600986
7407.266315
6788.262588
6610.817303
6683.924613
5060.996425
4733.512794
6203.735232
7121.396139
7875.751726
6714.642485
6638.868779
5885.798795
6253.591895
5887.534533
4971.732661
1714.541555
3601.781306
5326.493068
5354.767602
6219.631814
9007.429744
6761.45027
5766.661656
4641.988949
5842.718954
7315.797325
6207.42851
7128.084253
6603.894445
6861.94774
6127.651364
5249.182498
5889.377895
6487.36579
6967.040114
7111.684226
6616.105015
6656.278748
5822.350693
6038.195956
6956.272124
5639.034242
6283.754818
6612.418155
5785.778332
6938.857649
6162.374125
6362.422755
5876.056844
5249.403454
5535.521351
5630.987928
6263.136469
4157.94294
6539.002577
6680.15719
3168.972198
2379.048151
1845.789632
2732.097499
3512.201834
3889.43561
4246.795957
3659.401778
4696.434759
4218.00204
3901.326836
3884.158146
4949.681667
6391.834911
4733.595043
6820.180078
5012.581073
5045.712824
5644.977121
5719.370599
5597.21601
6102.126507
5455.499362
6633.945432
6032.313165
5435.730336
6626.855769
7808.630464
6541.86352
6584.041261
5958.633576
7186.08632
5985.300513
3151.649397
6277.983502
3763.257811
5174.769807
6467.571862
6647.471147
6351.586883
6739.80399
7294.462198
3413.237872
1109.969251
2020.829676
3154.108309
3065.536487
3811.298028
5451.413743
3283.707288
6833.792572
4349.90927
6072.320196
5796.606879
4302.0976
4429.731683
4564.266472
4483.95091
4097.807365
3488.343257
3167.25298
4086.814272
3846.434903
5289.636106
5076.9262
5486.419429
4671.745754
4363.048088
6304.003653
6013.009751
5619.365032
6569.330689
7559.026027
9347.603928
4986.976424
6703.41837
6290.805052
4885.740914
5022.898001
6703.129232
4187.292783
4041.853756
2804.431126
4521.50483
5291.447217
1715.399069
1972.722754
2867.307803
3799.053468
3459.792482
3753.32401
3017.27672
6376.941102
4028.390901
5620.04226
5405.168981
6409.533736
5259.842898
4523.723068
4417.651059
4748.421483
2503.621216
4711.854873
6281.840489
5849.812174
6874.801314
3997.94027
7434.99127
6885.384177
8015.440489
7689.733132
5893.796674
6739.464081
6525.003236
6895.969716
6124.690186
6188.26199
4746.304356
5881.866325
2603.260219
2971.0148
3403.813541
3743.54265
4002.126007
5753.857931
4467.938026
3936.532168
3930.704216
3539.289323
4031.943315
3942.830009
3567.966114
2860.568015
2233.297794
4227.069868
1789.170887
2698.089811
6213.133253
6564.392189
5757.219545
6950.199016
1983.710222
570.7114401
2945.741349
2866.236026
6541.529312
7250.11977
6680.478569
2544.704362
917.3768357
4191.948146
2326.477335
3050.53302
4702.848608
5232.753367
4123.716015
2983.902307
3620.118013
4284.845834
3524.024378
3384.126829
2472.379736
1093.904034
1129.261132
1145.779253
1146.86814
1139.918073
1141.520828
1133.276693
1104.343862
4403.778698
4154.907738
6195.873271
6582.301964
8352.559499
1082.725277
1019.647121
6787.575559
5000.815491
5155.61149
3080.719327
2190.796541
2429.751167
806.418965
1626.470867
2574.075274
3216.063799
3806.498086
4173.639082
4464.3762
4126.892204
3483.993084
3377.589585
2855.284192
1108.315149
1152.465368
1211.489471
1236.040824
1252.037763
1247.105634
1240.209498
1245.833725
1251.205112
1203.517182
1164.021848
1116.886516
69.70686185
4676.83921
5651.825825
4132.305381
6464.583947
7029.526049
7475.799559
6126.53574
4180.747025
4830.524179
2016.544659
1092.898386
2505.597009
4264.662664
3616.898365
4251.927374
3090.355203
2145.881812
2575.517263
2562.873977
2169.464434
1088.05234
1152.394984
1212.171669
1272.002284
1308.462165
1335.700269
1370.107374
1355.709748
1365.404784
1369.140737
1351.874764
1330.413857
1271.74945
1214.836787
1164.804485
1120.808463
6837.389734
198.3484333
199.248445
191.259795
251.8027126
244.4740358
2730.599659
5671.485635
2290.637695
1857.910113
3194.609302
3533.298392
3865.326598
2935.823976
3588.685621
3578.42783
2305.495197
2466.022112
2349.614309
1113.049798
1183.658816
1246.869829
1324.257525
1370.199901
1405.374261
1458.71407
1470.454399
1472.024257
1479.67262
1473.010028
1466.276546
1444.050293
1389.586977
1306.556653
1260.436375
1192.656807
1127.907435
0
0
205.0092776
235.9007386
5145.44421
6746.871492
850.3535076
4633.14995
2677.86484
2048.006064
1870.289553
2764.605263
2409.664763
4809.084232
2946.768815
2525.262597
2306.169947
2349.274557
1111.59939
1221.180647
1264.65377
1318.724912
1416.060647
1463.019946
1492.66697
1553.719194
1560.748713
1566.058462
1561.102001
1572.045949
1554.311681
1533.19825
1484.066797
1406.44558
1360.193577
1278.335789
1222.516792
1147.890376
125.2576988
110.8269996
118.7582756
137.7194802
6420.699829
5910.726404
6368.033802
6565.959362
2390.512483
2756.363686
3320.520547
4230.765669
6720.715905
5418.657193
5231.322483
3466.503138
2907.255614
1106.886932
1201.143118
1280.389527
1357.093205
1429.421849
1506.433196
1569.612142
1598.26065
1613.092471
1631.287141
1644.188008
1661.438343
1645.205911
1623.684451
1620.931401
1576.734239
1503.711352
1422.237026
1357.408801
1284.876664
1204.965521
1129.997154
101.445126
195.5323203
241.5328114
5885.617623
6408.564648
498.6532576
190.0423392
3646.877681
2062.79281
3456.983635
4122.710789
4226.615191
4125.995581
3534.520253
3318.106332
2375.412068
1155.051972
1249.391565
1337.29644
1423.636571
1529.660719
1585.712284
1636.75335
1663.882289
1679.208967
1700.939129
1712.09804
1710.601422
1704.992128
1706.56406
1662.486448
1640.18769
1584.328687
1510.407995
1444.65926
1356.818696
1292.624331
1178.381516
0
2279.296107
6216.388494
304.3033043
240.8171066
408.6462794
6165.312836
1831.884733
818.3098286
1584.780246
1959.28063
2580.31497
2607.97613
2809.222574
2201.344523
1109.244837
1212.663204
1310.767793
1418.641385
1515.98707
1581.176358
1646.119205
1686.47009
1731.983198
1742.640421
1795.065229
1821.047393
1824.399571
1822.628694
1767.41716
1698.319943
1697.141178
1662.507254
1609.506253
1525.46712
1430.956834
1347.448431
1239.806298
1131.224851
255.8388159
4331.99073
170.4508738
204.4115753
5443.613974
208.8205086
242.1706929
2951.5318
1358.258079
1598.468166
2196.004653
2212.326987
2112.47087
2051.511516
1137.033095
1249.181775
1375.274169
1473.930332
1550.096735
1630.824512
1669.233307
1724.798901
1817.227983
1898.794689
1972.127557
2029.529724
2020.314954
1976.225313
1893.157889
1802.366742
1722.25124
1690.745718
1637.876826
1563.646196
1474.663458
1396.430046
1299.287012
1196.114407
106.4067537
117.8153648
175.3945854
189.0091317
2604.042496
6350.566915
157.5346952
2610.801017
3194.813406
2304.719105
3765.02737
2749.93085
2105.786769
1087.296813
1182.696073
1290.800265
1411.574681
1535.818778
1578.708567
1659.899645
1708.985283
1803.955802
1947.924359
2101.915099
2225.137963
2313.354225
2293.957024
2228.264871
2097.98543
1936.013076
1804.620431
1735.547406
1691.892742
1606.207019
1542.826063
1457.413678
1344.294665
1239.831517
1132.910107
5170.862649
5700.893701
223.5926546
196.1402116
179.8367156
168.2345217
2320.449164
3838.230238
3044.966916
4277.294086
3075.204328
2293.937455