/*--------------------------------*- C++ -*----------------------------------*\
| =========                 |                                                 |
| \\      /  F ield         | OpenFOAM: The Open Source CFD Toolbox           |
|  \\    /   O peration     | Version:  v1706                                 |
|   \\  /    A nd           | Web:      www.OpenFOAM.com                      |
|    \\/     M anipulation  |                                                 |
\*---------------------------------------------------------------------------*/
FoamFile
{
    version     2.0;
    format      ascii;
    class       volScalarField;
    location    "3.989";
    object      Tov_mixture;
}
// * * * * * * * * * * * * * * * * * * * * * * * * * * * * * * * * * * * * * //

dimensions      [0 0 0 1 0 0 0];


internalField   nonuniform List<scalar> 
50792
(
7681.096746
7737.307986
7276.179068
6229.474837
7374.699508
7361.709645
6400.258692
5793.807108
6247.101502
4383.7683
5540.633732
3867.291794
6738.500296
5449.996353
5123.954249
6111.461315
2462.653753
2136.605665
2900.573627
1979.329394
4178.139653
4046.179138
2120.0363
2660.93204
4040.7774
1002.610699
4809.811392
4767.208193
2857.754157
3237.787314
4173.51773
2554.72933
1612.204514
2612.161122
3273.598742
2786.674901
3905.12604
3120.98472
2673.230156
3446.735507
4055.393447
4088.724957
4186.128745
266.5830065
252.0070599
3577.605078
6456.214363
5792.984453
4403.190033
5242.249196
3614.220682
4404.303414
2781.333399
3339.259748
2831.977173
4136.6167
5047.59319
4607.155674
2896.64179
3780.050967
4226.156496
4077.779537
3970.257374
4133.895808
4232.175153
4938.742767
5640.430698
4315.663536
4242.883994
5026.852205
4941.135443
5322.207998
5790.164635
5307.124887
4963.705621
4256.039828
4135.901889
5336.603449
4542.340005
5923.732071
5339.858307
5083.507084
2406.621284
1679.274164
7644.057936
197.2698228
2268.422472
2911.27576
2826.678051
4076.030742
6521.291432
2435.892455
2184.516402
4481.255408
4568.260951
1708.392629
5381.17669
4073.949699
4884.107455
2033.768645
3694.428366
5599.452459
5802.032215
5052.952256
4745.374337
3617.175146
5319.274473
5723.71341
3817.385898
4985.862273
4960.719219
2525.247668
5579.941658
5370.368638
4724.080282
4735.514826
4122.616648
5011.245718
5028.459162
4828.780566
5138.792146
6152.053478
5583.785569
4833.86319
4690.857617
4153.90819
6814.799527
7338.455692
4463.302084
3400.738989
4251.890176
629.2207693
2940.595519
1784.02513
3334.528165
5014.063486
6127.030814
6342.418119
5545.189901
3350.39838
4679.660143
5833.926989
6114.338342
5474.154758
4905.699288
6636.324647
6685.239841
6336.354716
4556.949547
6199.020122
6544.651822
5453.972374
5015.693876
5347.483131
6176.451661
6247.953641
5988.282046
5896.697208
5465.024157
4481.581163
5037.80931
4424.978235
4055.005155
4437.872176
5345.614005
4324.408095
3946.333165
3293.13855
7334.05103
6189.865804
3372.246705
3937.219344
1736.067307
2368.77313
6044.470034
3268.781141
4202.005178
3432.16186
3883.222933
1278.893397
4201.360239
3082.644609
4384.990224
4338.465009
5108.822875
5741.103945
5818.901852
5789.011786
5107.595737
6309.163477
6397.572255
5550.52724
6086.975377
6458.764511
5721.42341
4751.542879
5044.77291
5950.718424
6367.566741
4628.798441
5890.425134
4215.285501
4717.593182
4735.305014
4584.130398
5897.619731
6076.893705
4809.356569
5435.365793
4040.233419
3815.899782
2775.606083
7095.294216
3931.214158
4805.964641
2898.966597
2855.099379
4847.722503
4707.359675
2321.286482
2571.734502
5905.080643
3792.870952
4674.808654
3333.269391
4053.603696
3374.71845
2372.900086
5394.446318
5155.59616
4935.774842
5849.128184
6018.180219
5949.979141
4130.482669
4741.698339
4421.309742
5457.134616
5893.6937
3936.021646
6459.988801
4751.493946
5399.492529
4989.364086
4864.777768
6308.783586
4686.07782
4636.215641
4515.04493
4788.371861
4753.626436
2416.491468
3660.856336
188.7346908
2614.107845
209.9186152
219.5949737
744.1631831
5231.542477
4766.205836
4232.817574
3044.59317
3713.419374
4100.254041
5151.788922
3490.165175
2603.816273
2028.498171
4659.676002
3927.913533
4107.876927
5760.214059
5080.34282
6491.394689
6080.499034
4601.266504
5484.692094
5850.978417
5042.549575
5545.764784
4047.868159
4326.013993
5884.02841
5457.709945
5080.788221
4231.412174
4991.813085
3189.612254
3532.780221
4798.872265
4725.029124
5903.850181
5360.899521
1538.704664
5084.424936
4468.897195
218.4400965
308.3170437
237.9080767
2729.456988
5584.05971
4598.977618
2798.416526
5029.957253
3828.025532
2091.097686
1582.524252
3161.368229
2621.775543
4619.373711
5554.745651
4887.443602
4217.834469
5521.363986
3815.602725
5009.81833
5346.233594
4275.349306
5568.683897
5315.820507
5618.366236
4298.882871
5048.146089
4868.614799
5100.819508
4642.853999
3615.791728
4486.856701
4511.453783
3283.747263
5826.125548
5728.119715
5610.510867
4442.236384
4435.905507
3688.389902
3790.642535
7515.800126
7629.388506
5336.78055
5356.860119
5250.528282
3631.378468
4827.873901
4467.186529
4226.614257
2988.472823
3709.319536
1834.626093
4372.017842
3811.886894
4304.226317
4150.876644
3167.665038
4797.16137
5204.088585
4158.336391
6630.745809
4121.095122
5045.645694
5800.24741
6099.287537
4823.389118
5556.774746
5489.971072
6535.936893
6424.343334
6024.748622
6538.29182
4575.154804
5697.719202
4076.25999
5834.991161
6101.912858
5556.705521
5965.085668
4817.744973
2043.536241
3665.766756
218.7740154
6677.972535
1999.706886
6283.502266
5236.893314
3306.002299
4267.109487
5133.266299
5128.671272
4048.677448
6185.088449
4541.640583
4957.865939
5631.603329
5514.029389
4287.309846
5160.477491
6285.081925
6406.233537
6485.885083
5253.849545
6302.690999
4532.460346
4597.99173
2983.250311
4980.008982
4793.180693
5277.283601
6072.051133
4390.416059
5413.119643
3004.133731
5347.489735
3974.263896
4930.756815
6136.891933
6347.13804
5902.370833
5804.457979
5763.232714
3782.261855
4863.805259
154.3059449
4603.483252
3834.044492
5523.140211
5144.946583
1249.077263
4680.131913
6892.93134
5003.447956
5470.76634
3534.796881
5177.488523
2918.366281
6281.004048
4948.433226
5072.07908
4302.075166
3337.315306
5578.376523
5293.572261
6560.739059
6052.583813
5905.906577
4796.012898
4311.021458
4557.358027
5964.459372
5314.579744
5902.389632
5345.655529
3780.303445
5348.491358
4639.209796
5379.149574
4394.472864
5287.956789
5328.708634
5765.203403
4546.407073
4828.162889
1960.7223
5448.539082
7996.223863
4888.334706
3869.901513
3225.6811
6011.22635
1646.970405
4718.347786
5278.714524
4414.89878
4236.072602
6002.256175
4627.317191
5372.346033
3367.063269
3288.87084
3956.806378
4412.538855
6218.924539
5543.607744
4856.384758
5836.501706
5178.888773
4101.601742
3438.25716
4728.482406
5246.399809
5476.156369
6371.428713
6391.334505
6536.850552
5703.287341
6370.186811
4930.118122
4834.393594
5402.177916
5300.558098
6135.614103
5464.775752
5050.917965
3756.555322
1936.073373
3157.536501
5962.010008
194.7928881
617.3342246
2502.058826
4773.702959
5802.547892
2906.788925
4452.075208
4081.409014
1479.145257
5950.820208
4870.411478
4119.545753
3028.879332
1665.318694
4188.230245
3931.988879
5023.661824
5896.164258
4894.827211
3208.86122
5892.90874
4571.010044
4776.028892
3824.983626
4807.759951
5431.860158
6306.934556
6171.665786
5149.700897
5192.302222
5988.238718
5439.456094
5218.984946
5464.534802
5877.230224
5222.616754
5064.957563
5408.416112
5181.547988
2306.570549
2816.793558
8200.065499
5816.267971
5012.480011
6490.202807
7027.141303
6304.580439
6539.043108
6101.735039
5525.432539
4360.691999
6251.288318
2741.633796
5831.203806
5076.834266
4033.196789
2957.020759
4178.733137
4376.738591
3508.229854
3907.146376
4789.762372
5572.518396
6159.821957
6030.937965
5984.232007
5599.932281
6324.329167
6128.091552
5631.236361
5625.003623
6168.540592
5741.068539
4454.112009
4850.377505
6593.610102
6173.99537
5580.67855
5773.473301
4870.09846
4947.090446
2949.610702
2597.276865
2999.805587
5347.095449
5777.006654
4393.75865
4068.941633
6328.198246
5383.924884
4830.895908
5891.196497
5331.634888
4922.870465
3097.473217
4716.014173
4413.072135
4404.442691
2210.771787
4238.311987
5264.751407
4997.588547
3424.712506
4613.054822
5561.199124
6308.462664
5881.047615
6177.332474
4291.591312
5018.622938
5436.562705
6174.627383
5703.808504
5716.244721
5903.320474
5111.406315
6260.685054
5354.964754
6108.292115
6593.388217
6328.855822
4870.783613
4586.487559
2199.339971
2897.13798
164.0347994
196.1937907
1415.487838
5587.656786
5442.76777
4565.024825
5998.825057
5643.402067
5829.626628
4981.574444
3520.242492
3751.121026
5744.105617
4354.224042
5018.345478
5930.684546
4947.407752
4758.936862
6025.55982
5019.940471
5770.909771
4333.673495
5785.401164
4643.961316
4956.702093
6349.626328
5462.203114
4701.811675
5891.499997
5318.542959
4623.812377
5513.072264
5724.994227
6079.276515
4380.018925
5881.369907
4947.192545
5559.773556
4652.729236
4499.619876
3831.145105
4833.680779
192.6846124
190.2020044
824.5990189
3727.330544
178.0026501
3172.655702
5487.338133
4699.630471
5779.367173
1404.714021
3086.107954
5516.118713
4242.199038
5155.883824
5150.896267
4565.100198
5282.043834
6038.937238
5521.776065
4185.997609
4608.244889
4833.243057
5939.834411
5807.0169
4295.302129
5842.999964
5069.789924
5409.400541
5326.099921
5092.47598
4769.486475
5482.323064
5561.1484
6121.849489
5591.673844
5664.8642
4488.753993
4797.791674
5441.04501
4272.326777
1737.181719
2492.393655
4660.152927
801.5688939
220.6361668
3405.213075
1796.44417
3839.692148
3640.016873
5575.636781
4623.109624
3639.813147
4374.253555
4659.260881
3823.790392
4246.978127
5431.464667
4395.224499
5458.478166
6386.121965
6363.408831
4887.620228
5410.19368
5351.860444
6468.864304
5751.685126
6207.588373
6115.648652
4880.441746
5300.816627
4387.44468
5128.697237
4239.036726
4147.281545
3988.71187
4938.116342
5892.070001
6065.000201
5277.95018
5475.70079
5446.423053
4268.584829
1127.347043
5436.159561
140.8626642
5160.317619
1196.122568
2672.123821
4896.639061
6976.265244
1982.882181
3590.968486
4505.943902
5075.264425
3675.456934
5336.092788
5827.927036
5831.904638
4204.160059
5107.131218
5564.500554
5882.867415
5662.073573
4874.99427
5018.138535
5089.420261
6600.286452
5642.600032
4461.546446
6516.89586
5368.472732
5532.840646
6082.309172
5922.883719
6350.704085
4948.743217
4989.987835
5612.947096
5838.779415
6451.954435
5200.373067
4381.59633
4024.880955
3656.312541
1525.435089
2687.925345
2233.96491
3101.067327
4651.216978
5555.075379
4960.166037
4668.234977
2596.253854
1905.113306
6317.369644
6445.312505
4003.554355
4699.840566
4935.71057
4292.997763
5415.278586
5338.021929
6027.32718
3103.034024
5960.26196
5595.666987
5038.828672
6190.464925
6751.943205
6726.555388
6238.573088
6470.607594
6945.080576
6138.518306
6146.067046
6214.682053
5440.750332
5072.822261
6020.024444
4650.192916
3340.149166
5451.40271
5041.039832
5006.602876
4342.328649
4575.705208
3676.613079
2759.673039
183.0397231
4810.433354
3990.469689
5874.115785
3196.723008
2989.497668
4922.6243
5682.67816
5388.110262
3078.661871
5131.840132
3489.442016
6407.254444
4773.821559
5276.613417
6314.103255
6168.278529
5665.026145
5820.198699
6873.938728
6699.012603
6149.889992
6048.008418
5896.608334
5450.316582
5972.87308
6091.050685
6349.989954
5907.234919
6388.217942
5693.273524
6219.020873
5422.190284
5433.010859
5394.4258
4510.859986
5934.515876
4615.888035
3539.662875
5409.827393
3486.945439
3018.710056
203.509668
7170.615731
4370.632728
5203.592776
6512.033419
5781.324754
3300.311964
3091.185526
3605.383793
4059.352666
4444.373214
5049.696284
5134.41242
6433.397438
5710.188792
5278.56554
6363.243754
4394.474518
5224.282942
4983.618517
5093.870192
5790.474215
6470.831796
5445.971693
6160.410849
5745.745571
5490.315035
4445.806592
5017.059286
5538.264195
5761.764791
6493.84953
6103.765395
5190.093656
6365.089516
5817.976361
6458.5487
5296.715152
6027.266994
4655.335678
2342.386831
5585.855214
1087.005419
5451.092527
187.3399356
6618.536548
5554.289628
4234.640144
5707.885163
2846.917654
4320.541785
5348.525627
3019.800011
3587.160959
5847.338285
4384.724597
5803.347107
5650.729479
6478.643218
5912.889194
3452.175449
3491.476384
4156.588194
5547.139899
4741.002067
5596.710563
4194.211338
5352.142902
4650.30379
3325.575777
4858.535028
5656.788393
6782.419594
6813.086764
5462.309567
6229.303382
4921.85685
6293.531985
6119.534529
5440.652938
4614.875257
3817.084869
2287.971118
3600.162542
7655.040132
3058.66104
5488.125053
3961.160331
1510.97276
1850.448646
2602.225034
5524.684674
5428.346519
5341.574445
5174.569089
5527.089028
5361.434795
5838.495424
4743.806386
5377.876347
6565.422854
5603.926327
3226.427623
3772.19034
4357.7909
5193.344497
4312.64424
6098.826474
5671.631903
5904.731746
5079.705024
4749.081637
3425.806128
4522.933367
6422.652902
6262.340468
6173.216983
4958.251348
4470.45458
5089.569709
6016.708354
5163.721083
5616.075402
4341.897401
2685.36419
1457.261719
7867.413421
6454.235172
2927.401642
553.8811843
1373.922454
3636.873694
2629.871614
3643.36963
4740.26785
5473.48781
4249.728301
5388.327324
4637.657332
5545.099028
6156.324479
5165.167511
5157.193034
4203.295201
5463.934531
3364.471295
4594.393847
4820.287097
5169.136952
5119.906725
6291.771215
5176.622716
5334.790354
5969.600172
4945.416314
5880.941696
5984.585565
5470.974859
6226.456931
5976.840957
5419.61106
4280.735168
5497.730672
4498.415843
4115.444536
4912.215449
2571.537459
1501.555314
5611.643174
3686.137147
214.3958897
3210.839083
5112.756208
6179.64777
4344.028881
4362.53089
3947.277672
1778.532867
3673.313494
5793.743186
6027.452989
5694.464718
6504.445549
6707.95597
6060.288989
4102.441152
5359.3498
4658.676414
3100.741462
6330.283322
5589.799227
5296.16729
4779.954319
5840.697669
6141.865032
5120.544664
5589.383231
5620.300498
4607.873963
5132.742133
5352.566505
5638.967894
5700.766019
2949.080123
4516.52536
5073.624707
5284.60019
3926.075655
4760.106554
4308.976301
3902.222593
6948.982356
6774.217346
3301.990981
3878.305033
1398.570585
1921.529222
1896.348429
1593.074529
3926.885647
4394.127867
4332.986129
5540.921399
5078.328763
4677.436443
5675.475935
5768.723115
5698.37928
6451.811799
5805.125687
4296.293602
4471.414639
4659.256255
6046.707364
5067.865173
5350.455282
5170.588546
5774.663934
4486.355938
5305.163098
5689.528728
5237.404381
5908.997633
5423.934317
5880.622768
5685.257566
5660.215434
4932.215784
3990.618655
2412.304446
4100.770871
3575.843386
8138.739433
4673.814256
6837.782211
6454.198729
6011.405904
3867.950246
2935.299905
2846.338219
1482.805815
3315.594296
4457.968095
2291.646255
5371.477258
5170.954682
5246.252171
6077.313927
6159.574377
5258.359123
5949.631639
6272.493784
5053.107979
5042.144561
3311.292817
4795.175636
3498.460105
5516.874276
5728.948512
6056.346796
5520.641145
4424.477372
5094.082039
4503.637199
5840.917407
5713.009045
5246.942751
5763.708349
4005.026146
5428.169484
4524.991767
3723.19852
2544.737812
3055.665939
5699.822517
7147.89389
6051.529337
1255.427391
1715.154074
4500.658989
4369.8615
5350.345377
3967.157641
3663.366693
4696.493742
5646.422958
5283.76815
5762.374016
4808.229265
5554.901773
6506.353578
5451.828787
6449.692009
5776.983894
4592.917999
4781.627705
5973.918119
6314.768677
5581.239256
5694.405213
5530.312265
5676.692473
5215.377258
4961.597169
5625.790802
5143.461352
3437.371166
3720.465048
5667.430375
4733.973951
4397.14249
4345.076693
4913.318709
4138.353292
3916.77983
5268.786578
6174.401054
6932.974966
5464.060687
928.6662197
3000.300157
4073.530714
5228.356419
5188.644753
1276.639089
3747.69998
3896.344541
5084.958276
3462.927968
4836.647311
2572.112424
4638.409713
4407.107703
6348.547148
4708.212769
5629.060047
5315.726497
5008.039184
6681.797337
6190.037263
6475.420448
5165.502139
5076.013296
4553.391188
4194.596457
4799.799587
4852.913644
4965.846923
5746.70842
5432.449172
5368.271007
6082.392538
6178.790026
6531.999063
6109.167256
4917.767349
3832.619512
3963.221615
6444.210649
3977.071366
229.5873401
238.562403
3020.007779
6376.697643
4124.837565
6423.528432
4890.755555
2680.151349
3364.661193
2600.123467
5506.693166
4792.840716
4902.682323
5868.167009
3423.149722
6134.414969
5070.58427
6452.309633
5378.700057
5500.122111
5011.866158
6326.575497
5331.544093
6406.416504
5280.795394
5638.431164
4735.244899
6475.681838
5786.719512
5364.007634
5829.184599
5692.621173
6022.834755
5218.817651
5494.461527
6443.418397
4905.567056
5253.976966
2654.383316
3648.995657
6859.006399
839.6268586
278.1523089
269.9291429
4086.99507
3709.0479
4832.272631
3794.726474
3570.786991
4686.115087
3486.223414
2342.34963
1211.237465
4803.424868
5412.198993
3822.588682
4024.46441
4020.80269
5299.611436
6627.216255
6076.257152
6130.627702
6789.751307
6277.111674
5751.576919
4353.588914
5079.349857
5780.294062
4496.60785
5558.888898
6373.82872
5536.483672
6510.27461
4444.416948
5717.76208
5316.650242
5967.033822
5318.881474
5891.075973
4463.723512
3458.93215
6847.780371
6717.042768
4740.940461
720.8173523
4911.258613
2843.190622
199.0346576
869.1135283
5150.018951
6242.802058
4250.870225
4044.564938
3721.956943
2969.85684
5480.963357
3785.806384
5141.557215
5919.625291
4574.544172
5736.19726
6088.214181
6231.877466
6791.549414
6116.979042
5514.988392
5678.491801
4823.012018
4677.254428
4961.062611
4680.104402
5432.032572
5930.279414
5749.531777
5711.799001
4737.497489
4761.031918
4957.879219
6239.201965
5608.931515
5781.733157
4774.217316
3054.549906
5884.370892
1476.557386
5562.127461
4675.791658
3425.833619
2662.77209
5372.915037
4848.343451
6378.360188
4291.397639
4061.35494
3240.084136
2653.504467
4381.173243
5509.069128
4148.526203
4589.17841
5464.258194
3074.193386
4672.217902
5337.818013
5236.335825
5952.59562
5950.620566
5152.851864
5919.030364
5833.460729
5465.061791
6045.735639
4856.694092
4643.732023
4943.581439
5902.934011
5344.209616
6359.100262
4819.442474
4629.603392
6172.493018
4629.582068
5403.628999
4458.563397
2614.583451
4926.495147
197.0875113
4685.656718
4786.21217
6763.423871
5042.469064
4720.080992
6473.947807
4664.809297
6993.599762
5872.022279
3506.863416
4592.626247
5625.769993
5500.05377
5391.639371
4908.187933
6133.929349
5242.421283
4316.782354
3657.473934
5392.722207
4405.880264
6038.608316
5296.956959
5411.433177
6011.862544
5892.496731
5071.542935
5912.12521
4467.083455
4991.22725
5538.375571
6028.486183
5069.051899
4846.322865
4937.530906
5581.142069
6080.571782
4466.663166
3808.958903
4649.610306
4757.650823
546.6800524
2402.732466
3062.925911
1212.09899
476.174433
4687.823995
5155.798177
5030.913929
6620.688533
6339.814801
6174.906067
4926.241145
5623.973885
4580.492406
4613.407682
2620.564978
5555.241572
5122.649266
5341.564539
4964.497818
6021.958899
5131.025187
4867.646772
5100.10768
5255.42976
5916.994619
4606.672205
5960.695894
6140.476197
5630.558462
5209.36661
4499.202526
5327.500155
5675.639774
5325.131945
5673.203834
5526.425754
5702.660712
5292.253556
5033.392041
3246.32439
3868.582439
164.9873625
227.9474807
216.5567657
1056.260581
2938.108936
4585.043162
4044.287497
4456.001333
5740.342128
6108.14492
6433.879255
6151.379475
4659.483673
3780.327381
4045.630756
4034.462537
5197.418548
5485.190815
4050.365149
2598.421305
3777.878239
4370.655084
5291.543151
5379.125555
4798.365143
5236.746455
5000.78585
4922.74045
6025.403424
4688.358034
5284.506323
4928.718996
4339.559599
6219.721466
6378.711699
4903.099249
5497.192337
5111.407922
6095.349053
5203.873996
3229.257739
3523.052515
170.4931181
171.9382509
4960.598069
4453.651734
3915.877055
3017.186058
5216.426584
5802.155965
5197.989271
5414.605383
4643.599793
3218.773743
5664.49807
3728.987379
5697.006013
5198.974977
3834.272277
5129.648181
5551.941007
4285.406221
5654.217089
5883.932157
6501.132229
5043.326928
5029.810037
6133.240167
5555.38147
4827.015018
6050.746651
4652.671524
5769.215433
5554.474754
5786.267489
5528.083203
6203.845501
5095.135988
4965.453631
4913.242623
5322.324137
4435.631946
4454.04808
3116.131652
6127.433618
5160.16879
6762.956048
6930.00579
5410.584715
5035.489378
4065.429655
4185.371366
3753.618124
3984.266217
4979.121497
2743.980316
3116.522405
3110.70372
5446.798098
3527.976125
4488.432852
5703.339854
4912.065099
6586.033622
6086.293839
4735.205035
5559.048281
5545.643783
4778.364005
5802.287281
4697.454426
2691.0291
4720.911086
5962.210253
6303.808874
5969.838578
6234.07273
5813.605714
5556.51983
4051.426367
3640.340735
4547.640311
4672.640927
3492.588245
3608.484247
2409.137408
6780.623386
7753.364243
8050.922344
6975.588706
5883.813505
7739.200762
4345.909419
4757.917454
3116.022121
4404.311672
6008.867118
4719.916112
3991.540961
5044.368177
5788.515276
4709.726382
5239.318302
6748.451028
6440.229029
5814.84634
3560.859723
2944.907135
4987.830643
5667.360206
5887.756337
5792.80235
4259.403842
3302.822451
3677.170676
5366.307499
5574.971036
6273.361416
5303.455402
5144.909148
5291.05204
4093.322572
4758.629075
4079.715275
3951.942324
2756.205058
3410.928575
3166.80228
2150.794184
5541.212722
3398.973403
3681.223424
5490.630133
4094.546721
2484.63396
1715.232541
2575.005892
3869.966842
3473.68076
5009.952425
2978.709288
5282.75774
5115.913324
2875.380048
5398.749073
5238.219743
5913.222678
3840.319171
3071.444775
3395.147986
4246.668307
4881.372032
4725.490445
6190.573646
5228.964312
3177.511551
3572.108478
4223.388199
4996.709156
4238.4625
4108.453178
4818.677867
5377.37145
5337.668316
4919.820832
2072.457131
4448.460651
1604.231478
1520.834984
6268.494749
8039.689318
7192.471394
8164.355986
8071.234559
6904.732233
5832.196805
6010.961009
2515.517298
5384.879467
6064.996725
5224.501031
5195.343892
5040.579696
4270.233124
3488.037423
2050.312961
3141.657209
1879.633947
3327.503095
3436.357352
1441.443062
3482.132222
3804.462723
3005.536131
4186.708374
3032.525399
2801.997753
2430.631043
2816.559927
2511.208015
3203.753458
2870.344795
3400.985949
2872.498616
3320.550085
2971.625692
3998.736837
2163.673448
1720.61024
1866.331041
2570.050646
1862.422089
3829.208672
5289.375924
5850.703547
6318.420896
7245.228256
6964.990218
7584.295391
7181.324719
7328.415911
7341.53211
7286.399457
7570.295803
7162.82196
7335.291449
6290.211746
6584.97904
6659.732707
5899.436053
5432.94903
6673.220611
6028.72331
5577.748765
5009.117925
4672.52877
5338.144115
5882.854535
6091.175597
5183.240581
2484.439445
3777.980962
3617.079929
3540.786597
3360.993972
3253.583793
4076.734366
3207.159094
4647.910793
4550.35634
4752.460651
5327.933127
2002.23239
2259.951961
3978.550072
5098.85999
5548.768834
6847.092882
5385.91138
5827.272783
4526.483327
6363.015633
5916.907383
6945.682135
6201.6546
6084.561428
6944.960345
7082.982337
6715.285503
6757.209769
6753.033286
7044.309069
6624.682059
6508.116178
6288.083663
6267.414355
6061.70507
5970.386249
6192.410075
6394.648077
6312.879024
6181.148845
5812.813428
5252.716198
4840.700781
4892.945273
6105.651679
5575.980787
6353.898987
5649.599037
5673.985219
5981.831405
5660.70072
5134.753182
2968.317384
2231.629329
2926.211932
4410.870474
6539.882761
6602.124272
5202.075923
4981.676656
5871.127903
5866.63926
6193.630538
7074.867264
5876.845919
4994.774235
6683.596599
7069.233388
6756.632754
6084.413747
6377.431965
6430.293004
6482.216009
6299.306844
6431.18018
6492.697573
6251.883468
6443.493984
6260.527385
6305.382065
6570.066336
6167.216347
6059.242677
6104.261977
5765.186971
6240.147069
6149.172829
6533.433883
6405.660151
6192.175322
5403.792679
6200.343228
6359.062936
5542.278608
4401.224101
3011.704378
3581.479023
5015.113168
4576.523009
5984.771705
5748.040584
4936.186065
5391.217919
5086.830716
5860.912136
5361.667804
5489.970901
5494.044784
5461.995623
6434.154736
6036.27999
5357.483874
5731.518644
5915.351668
5887.374832
6225.615555
5816.45813
6084.883988
5840.441774
6293.192442
6034.184931
6115.545609
6308.125626
6438.356942
6190.512499
6190.263162
6430.690339
6408.763196
5983.005277
5744.594817
6016.829794
5605.803481
6492.106525
6099.991726
6336.008221
5971.38307
3916.149199
2022.971142
2518.884898
4194.291982
4601.502101
4562.544492
4965.331148
4795.741443
4995.402323
5597.871857
5466.819877
5363.03931
5451.043504
4901.030513
4933.280469
5547.683314
5167.223513
5709.809713
5536.428714
5384.154953
5590.446379
5774.732758
5199.796625
5952.910906
5432.679047
6126.165569
6244.573263
6451.671704
6316.923783
6348.584076
6191.078076
6610.045628
5921.520007
6074.042605
5748.344332
5598.193852
6278.98272
6515.393253
6502.352066
5954.541716
6157.180959
5911.507342
3895.095031
1979.117837
2736.789955
3810.517872
3746.546288
4102.423613
5494.230614
4183.178134
5019.246523
5276.342018
4977.296433
4662.066883
4602.476323
5189.422227
4332.58426
4340.821222
4624.335321
4612.737638
4152.94907
4386.67615
4087.692922
4730.614355
5036.235048
5417.230967
4557.450094
4548.870795
5807.101189
6123.671434
6326.289871
6170.558662
6269.22038
7159.704243
6711.791148
6327.59491
6229.286892
5906.321537
5463.783215
6437.354427
6783.950079
6147.688054
5070.492251
4965.586687
3582.624866
2006.112428
2653.39443
3442.798821
4104.650023
4457.502288
4839.148845
4587.340413
5755.411669
5235.41799
5951.261573
5459.692601
4930.405609
4706.561595
4316.540672
4143.723775
3962.495864
2773.034184
4228.013776
4336.685615
5309.822379
6042.733064
5809.110566
6485.862642
6422.483342
6816.46364
6664.361575
6349.082477
6824.984111
6013.270444
6114.864152
5898.910303
6003.742135
5902.45542
3880.251734
2084.037327
3144.135683
2933.043179
3290.617936
3890.985711
4319.399628
4320.801331
4006.62758
4244.823131
3848.084616
4143.38013
4026.675324
3709.222038
3270.40472
2404.41964
3095.710871
4281.395551
4531.133839
6312.669048
6261.54826
6136.875255
6558.344437
7365.877571
6723.344412
6028.500442
6567.93978
6077.341963
6242.173257
5713.326302
3846.385249
1887.914727
2926.814466
3082.535136
3210.418608
3824.572672
4531.207246
3675.934236
2911.091563
4196.045527
3823.560065
3335.801251
3601.425728
2573.073985
1102.197981
1130.298247
1147.834504
1147.508897
1154.18881
1149.922647
1135.202683
1110.92033
3132.045427
3818.732399
6490.011535
5980.2133
6921.931532
5914.623487
5796.83553
7067.347149
5971.350655
5964.132749
5609.731101
4510.097336
3996.050154
1610.981704
2326.438692
3026.527699
3292.791753
3950.761648
3911.543087
4131.593834
3686.547265
3384.883417
3110.829805
2637.804126
1110.200342
1158.328041
1212.947583
1234.014939
1255.563711
1261.050112
1265.639368
1264.202928
1237.680159
1211.004389
1169.475814
1118.767343
3975.363834
4969.739634
6986.447099
4523.740509
6547.405216
5260.693111
6486.74097
6311.630459
5789.253672
5140.593248
3986.48769
1867.273992
2446.311687
2728.678344
3403.585535
3615.397185
3226.516253
3225.221938
3090.341585
2861.683319
2365.388665
1094.856067
1158.683743
1226.431369
1270.893233
1307.666763
1352.343732
1369.76875
1377.724957
1387.887771
1377.831428
1357.341465
1328.566419
1281.58199
1227.837543
1166.351842
1115.415184
5393.293404
6116.998754
7759.027513
4905.227652
6865.936566
6380.119273
4531.430756
6333.794956
5938.358024
5726.416591
2192.82221
2943.923682
3407.574172
3383.79324
3862.87952
4263.095308
3280.807411
3151.310888
2583.879412
1117.794652
1188.631583
1254.532657
1320.01015
1375.802281
1421.607303
1466.885876
1483.590826
1488.333199
1498.759555
1489.185406
1474.053436
1440.306425
1388.512684
1324.261565
1269.441554
1208.921315
1134.433282
6173.023546
4825.119458
6793.19427
2894.856686
5730.307259
6452.040137
6718.737095
5863.372158
5017.299827
1662.586518
2000.831481
2484.612536
2671.796613
3592.301946
2734.498424
2646.521186
2660.292606
2242.185415
1116.353166
1205.590741
1272.297918
1347.036325
1420.807886
1477.647873
1518.500436
1570.793953
1584.584107
1596.282248
1596.34854
1599.004102
1566.410768
1547.040079
1501.718416
1424.155537
1364.65362
1292.580056
1224.892647
1140.228806
6953.714884
6473.706583
5281.983518
7365.549831
7361.449271
6328.833541
6340.265249
5746.558069
3434.70747
2066.428705
2846.496535
2611.523226
3565.23353
3089.137595
3222.309113
2687.177986
2429.093535
1097.866497
1196.814593
1275.151394
1364.935085
1447.445338
1524.576564
1575.690149
1613.670628
1647.558212
1658.069346
1679.422323
1684.88122
1664.879217
1651.225843
1636.033065
1595.098605
1523.919594
1447.584945
1369.638798
1297.872715
1212.749259
1128.06622
173.9104757
2787.560625
7009.34749
6145.923161
6053.779287
6044.434722
4057.534265
4248.442005
1582.590373
2295.313632
2996.553645
3247.303615
3449.693841
3239.930417
2957.038377
2350.075075
1158.654604
1256.181495
1343.689254
1445.546134
1537.510735
1593.198084
1658.979058
1687.79504
1709.355724
1726.876327
1743.601824
1745.051
1731.693765
1710.527518
1686.588417
1665.023749
1606.296949
1529.727612
1456.803775
1372.608035
1286.417007
1184.274541
3338.439242
6564.384902
6603.245217
4455.475433
3071.858322
2889.7007
5728.515909
1642.715233
1235.459939
1949.771688
1983.967589
2722.261712
2841.09945
2417.3501
2208.253147
1114.466662
1215.596551
1321.85717
1422.345342
1511.475398
1599.099199
1667.662791
1702.104316
1754.6892
1791.488746
1833.210829
1843.953008
1860.826764
1842.190436
1795.577532
1743.405744
1724.375539
1676.324685
1620.335638
1547.311181
1446.995637
1353.126152
1251.933523
1147.097626
8311.366453
4796.36154
7276.002284
5044.036131
6757.250051
5697.893207
1543.080075
1509.033475
2144.227961
2475.583301
3080.147104
2724.500216
2442.793191
2295.602777
1159.441062
1265.96001
1380.195293
1486.072964
1571.687236
1649.011979
1693.17763
1755.844435
1837.254286
1932.760538
2015.3848
2061.209326
2064.497005
2017.653217
1930.354453
1843.121871
1771.510535
1712.84853
1660.628896
1602.830566
1500.661549
1409.418326
1310.141657
1202.140149
171.9623998
7920.500017
6896.563087
4563.393628
6529.763923
3420.323579
2342.383003
1786.621626
2842.847158
2457.481792
2812.598118
3037.211168
2387.496093
1097.295427
1199.692178
1303.329551
1415.943085
1537.174352
1613.884603
1680.623176
1739.553546
1836.79127
1982.519931
2145.919273
2288.047736
2355.245624
2355.174887
2285.411036
2143.079968
1981.5103
1842.393583
1754.35277
1699.014185
1642.432578
1554.90134
1456.279795
1349.278518
1248.774144
1131.736032
2170.109895
4657.666779
6816.616761
7236.575091
5628.359832
3755.609201
1769.375001