/*--------------------------------*- C++ -*----------------------------------*\
| =========                 |                                                 |
| \\      /  F ield         | OpenFOAM: The Open Source CFD Toolbox           |
|  \\    /   O peration     | Version:  v1706                                 |
|   \\  /    A nd           | Web:      www.OpenFOAM.com                      |
|    \\/     M anipulation  |                                                 |
\*---------------------------------------------------------------------------*/
FoamFile
{
    version     2.0;
    format      ascii;
    class       volScalarField;
    location    "3.989";
    object      Tov_N2;
}
// * * * * * * * * * * * * * * * * * * * * * * * * * * * * * * * * * * * * * //

dimensions      [0 0 0 1 0 0 0];


internalField   nonuniform List<scalar> 
50792
(
8060.786992
7613.267644
6983.917114
6333.114234
7456.575037
7306.822319
6497.537582
5201.381404
5917.647191
4772.72616
5354.50417
3361.357279
6443.810962
5206.299521
5680.743112
5773.879028
2293.206033
1835.460986
3474.423641
2342.233606
4953.834004
4662.88816
1964.085084
2790.256217
4672.867608
1069.709495
1553.559155
5295.976074
2780.387674
2890.41041
4141.885691
2559.288149
1757.491166
3074.489112
2151.330717
3183.968794
4358.86619
3209.08674
2978.871459
3928.452396
4550.812908
4591.820085
5612.014727
281.4605837
262.7311546
4156.202991
6770.594986
6401.604721
4460.17266
4195.27596
4624.629322
3489.108395
3250.134143
2223.302455
2478.814196
4810.941819
5416.263511
4315.16588
3221.977526
3586.39897
4685.526763
3656.568713
3252.714989
2127.56986
3164.354028
4869.614401
5850.232617
4731.655023
4078.428144
5476.074918
5252.28119
5077.179367
5717.160265
4180.142071
4895.060873
4363.429736
3352.394129
5329.898066
4398.653905
5728.479981
4988.557821
5748.226903
2223.043817
1839.212659
7359.681216
195.0618036
2593.358591
3183.543611
3119.656848
4447.114769
3857.658272
1985.717202
2473.235168
3271.807427
4847.035731
1569.286954
5722.041308
4423.881174
4928.822604
2190.597646
4035.97424
4779.737001
5752.287073
5323.99046
5141.848595
3195.843347
5497.123471
5777.932822
4271.479249
5549.025945
5405.367223
1890.043387
5905.618474
5927.300423
5111.948307
3403.386574
4046.922517
5351.869214
4795.491056
4805.368915
5535.825363
6644.289814
5828.458418
5214.96289
3769.223323
3751.057974
7280.93097
7454.209691
4890.793781
3774.955916
4626.052548
731.1832226
3423.292757
2110.3132
2138.751003
5349.622511
6408.10623
4903.905309
5476.656145
3458.999691
4787.58303
6026.954822
4901.417915
5671.134719
4594.207399
6234.245184
6466.620496
6191.109247
4980.692428
6286.534815
6575.104576
5755.095674
5388.898175
4962.652052
6304.41085
6382.180991
5873.357604
6102.592372
4122.638618
4304.939675
4916.6873
4979.916444
4519.556705
4831.669552
5176.586539
4020.780598
4102.945975
3509.573211
7381.941835
5635.064735
241.3499164
3700.909759
2285.694024
2891.079988
6409.417931
3134.41006
1881.796116
3754.927307
2671.799543
880.8193385
3751.273742
2271.183064
4741.327382
4485.103215
4685.338437
6027.462267
5969.370863
5831.837441
5597.760996
6109.10152
6202.627315
5436.515611
6264.029819
6445.085198
5870.335108
5058.346694
4795.682515
6280.552154
6534.128879
3455.158388
5605.22227
4231.119573
4300.872038
5289.894378
4881.939095
6177.703509
6083.885738
4819.74348
5545.438228
4567.011078
3132.168053
3301.507677
7312.526317
4505.865976
2776.708656
3390.348974
3249.688617
2815.5285
3864.619962
2550.09582
2137.897574
5701.15655
4193.027104
4432.043357
3121.526236
3385.08026
3687.013545
2725.423954
5500.546739
5105.47862
5314.431253
5488.813665
6214.98908
5928.75521
4380.445868
4836.38835
4408.934632
5145.796112
5599.448323
4197.725462
6765.415447
4382.859222
4773.158446
4572.43734
4580.723773
6616.489977
5087.137578
4700.970048
4379.844809
4241.981209
3807.480236
2429.129454
4793.747574
197.5199899
2699.69489
216.396786
223.2777572
426.2953387
5435.242744
5241.913653
4056.472526
2432.579874
3883.002681
4423.165269
4842.635423
3709.243424
2543.338302
2169.995273
4913.810649
4454.654545
4220.462041
5627.709479
4366.776043
6682.91236
6215.668892
4912.991721
5671.756374
6041.462446
4158.149848
5455.893652
3539.008661
3979.346976
5711.55896
5342.372678
4282.834002
4617.318374
5374.704009
3650.840998
3550.655175
5008.815169
4879.721476
6035.91414
5008.353149
1212.194366
4450.508327
5064.11948
217.1461346
322.0664264
233.9623437
1964.664844
6695.951712
5004.143898
3361.165725
5295.982138
3845.974254
2600.562308
1843.071472
3889.152729
2901.511411
5037.342832
6039.20722
5433.476858
4183.098904
5662.424507
3200.85407
4838.085482
5574.764424
4489.308152
6115.321866
5175.4754
5289.616214
3562.77365
5091.696695
4907.755467
5186.082173
4690.482697
3773.514264
3414.968833
4507.127339
3300.529085
5992.502533
5891.85707
5452.557147
4748.510767
4144.639253
3235.918517
2927.083554
7859.598638
7724.130584
5883.052001
5618.15805
5644.630262
4170.642954
4329.677075
5019.645052
3486.996573
3394.528586
3920.13084
2239.378447
4923.536981
3533.467231
5008.465498
4896.794919
3872.936355
5207.54325
5358.747625
4690.005672
6104.837777
4036.771066
3933.974129
6108.749078
6360.457194
4983.315126
5713.354638
5174.17737
6164.914065
3464.028217
5357.131069
6233.996304
4871.396059
5984.471551
2614.381401
6233.591311
5428.116365
5022.363742
6348.572142
3809.183528
1993.186855
3219.991246
227.7515026
4617.578693
2368.889626
6225.786494
5727.689745
2699.506354
4772.155654
5647.19863
5104.638922
4090.315359
6191.493105
4573.951024
4906.500578
4358.625339
5850.746238
4267.900145
5539.554227
6388.70493
6351.089413
6426.107572
4410.736749
6386.983227
3614.179791
5069.959973
3273.438333
5123.629159
4850.898791
4940.54161
5105.913959
4659.587034
5234.369527
3165.474656
4677.695533
3899.366974
5036.364174
6246.56088
6206.118205
5131.609022
6043.771009
5505.799364
3950.762345
4593.537544
157.5558478
184.0424804
3976.621491
5656.577042
5364.584353
1284.77864
4855.800601
6585.92376
5523.810498
5251.340896
4021.78368
4143.594964
2137.378526
4785.058933
5117.434976
4366.58109
4643.635462
3494.595693
5801.599787
5779.587802
6575.672373
5861.308904
5888.930397
5316.760873
4717.100221
4842.195383
5885.139375
4692.044799
5211.671192
5762.613465
3887.972089
5321.592938
4552.989704
5296.26981
3876.241111
5467.723112
4837.315414
5178.825347
4581.07786
4651.512745
1911.862869
4128.408398
7236.016747
5385.820056
4501.348835
3804.811005
6303.511933
536.8679988
5123.025037
5662.710404
5062.578089
4959.326214
6084.887826
4938.604585
3898.407236
2882.066028
3866.165597
4521.45681
4211.901862
6152.596852
5754.087909
4952.330306
6324.858745
5506.477216
3958.791724
3812.208124
3924.765967
5288.789079
4791.5395
6762.28755
5245.124527
6128.928431
5310.004638
6076.585978
4972.609766
5024.036458
5391.470945
5400.187619
6348.802544
5701.643507
4948.777008
4034.147875
1602.113777
4314.26595
192.32946
177.3424673
720.6092993
2981.079313
4743.914875
1895.292736
3392.62692
4735.870379
3592.366963
1364.450882
6344.12239
5274.302797
4474.461629
1796.010095
1830.429611
4680.745755
3947.165999
5123.483486
5549.986591
4539.554211
1997.197649
5702.485822
4844.242491
4875.080116
4458.864263
4966.675729
5638.816085
6489.594112
6226.176297
5244.261615
5360.204059
5890.812834
5608.095829
5406.557299
5440.645244
5737.8514
4626.866551
5441.052943
4702.155527
5405.912073
1731.516729
4107.541316
7761.522352
6771.911813
6039.87299
7127.514721
7621.986688
4980.85112
7059.333865
4673.474919
6003.637336
4249.464819
5662.544763
3223.446679
5752.197483
5399.613838
2407.625774
3268.457976
4337.152439
3485.040107
3115.231542
4537.565505
4675.041531
3874.429004
6216.868168
6307.568267
5941.037185
5703.61808
6438.021027
6064.367687
5625.126017
5782.840611
5935.316531
5214.320872
4997.113201
3753.492436
6195.235263
5494.359967
4441.841611
4686.112083
4135.251196
4828.722936
2945.366487
2284.195883
4300.839772
6642.967881
6510.292366
5250.91121
4854.483889
6697.963558
4153.731583
5390.800916
6255.335027
5239.609121
5053.647304
3602.330291
4355.515788
4736.541106
4107.971032
2249.275744
4720.875787
5517.068241
4953.524805
3862.367825
4389.18759
4892.310668
5941.561524
5816.669864
5517.351601
3548.641765
4792.760514
5035.584148
6361.804283
5911.540351
5889.283929
4805.587317
4558.624494
5989.69952
5891.067765
5832.203368
6451.887854
6125.556693
3481.691158
4498.300156
2194.81775
2826.926437
161.6601786
196.3706526
1644.442936
5840.188641
5769.492757
4672.77952
6264.838504
6036.465972
6449.648762
5382.82896
3752.767678
4392.121164
5446.936127
4279.07919
4232.336443
6230.819264
5098.461564
5092.816202
6233.029735
5462.956889
5520.525703
4009.323506
4963.9197
4566.851562
4689.301475
6362.233019
5444.981207
4488.357028
5729.83529
5426.46453
4801.604314
5804.310856
4804.507623
6232.894451
4616.48023
5847.081739
5304.632822
4896.52695
4442.709091
4437.832947
3937.618713
5351.09891
202.9842283
196.6859907
1000.088259
4462.851673
185.3040206
2969.17496
6202.264048
5272.711237
5822.724787
1479.339171
3630.848031
5819.34082
3540.28033
3661.730325
4369.415468
2865.610042
5103.801979
6406.558233
5270.807573
4762.181693
4242.469686
4891.864108
5474.522763
5884.719879
4663.244889
6025.218413
5136.984491
5708.60339
5634.527696
5429.160905
4941.559401
5306.649066
5403.894613
6343.125794
5656.2484
5944.642643
4671.563494
4316.124429
5384.972156
3741.107258
1586.853951
2517.676847
5195.308713
1023.989316
230.9099837
4319.917605
289.4473412
4495.713268
3948.648934
5846.619616
5136.897467
3670.128008
4529.894386
3906.182492
3728.385118
4782.014602
5024.309342
4225.45576
4661.552182
6915.497732
6491.481307
5205.568621
5338.039015
4943.762174
6307.716161
4939.748344
6080.973472
5344.587052
4961.180979
4169.076695
3924.803741
4401.969626
4008.590996
4540.222422
4426.592345
5197.4692
5763.552196
6025.574351
5640.448704
5755.643881
4385.912007
4422.38515
1217.35679
4876.981147
144.5206537
5923.104631
192.1998551
3149.885078
4760.443607
6348.079682
1978.659978
4058.357276
4773.618681
5254.977028
3617.746284
3615.18384
4940.141116
6050.816426
4465.798128
4271.112495
4662.938848
5662.572522
6420.73087
4726.355032
5112.832589
4474.387447
6113.744176
5048.841209
4838.411285
6448.031263
5111.478924
5438.506095
5901.43752
5601.69464
5902.579888
4938.236431
5237.371107
5589.053051
5926.553724
6362.037547
5249.036215
4705.093451
3367.489204
3575.669425
1522.043731
2391.410754
2658.830947
3855.451003
3439.548877
5754.419837
3603.812905
4404.383369
3297.438251
2382.865674
6252.849157
6640.668146
4247.826164
4475.598407
4876.00024
4283.700588
5627.791911
5835.650401
6794.832107
2141.088593
5941.914174
5692.308647
5113.132637
5649.995527
6554.276356
6816.035238
6396.751069
6492.774769
6651.320676
5798.753633
5768.191974
5519.794571
5163.086094
4909.479327
5874.48153
4564.086689
3526.267787
5655.525713
4998.035738
5172.817435
4610.638399
4466.019619
4044.072052
2726.680202
183.4773092
4210.388256
4625.672432
3328.22827
1585.093874
3307.341364
4861.261093
5899.076583
6107.626089
3673.640846
5468.275253
3769.33779
6359.237023
5238.98083
4614.942304
6419.365082
6464.309977
5609.004052
6095.278823
6886.208771
6647.544297
5941.192735
6444.813395
5801.013015
5603.877928
6350.277712
6639.221748
6626.029102
5943.109215
6128.267453
5838.587561
6477.649988
5403.100435
5546.484509
5377.44315
4886.860214
6124.979316
4947.910654
3717.481645
4947.423919
3379.516861
2408.016206
195.8947303
2610.629625
4504.817006
4013.265297
2664.881903
3757.993253
3516.245789
2278.073575
2745.573862
3853.728924
4906.745063
5445.210657
5527.340644
6397.168824
6053.608351
5284.841335
5992.748253
4410.336143
4515.330589
5129.031477
5167.572311
5845.849923
6130.665389
5778.670396
6408.507886
6390.398711
5152.94618
3901.311525
5057.337388
5849.215498
5820.211237
6085.310717
5949.887739
5470.644464
6086.922569
5753.846219
6418.389046
4825.441526
6117.709955
4649.253999
2355.598661
5673.891486
1114.447534
5902.78224
175.528106
3687.149349
4938.943575
4014.444087
3964.762101
2681.992348
4627.067281
3442.10865
3532.646933
3306.991227
6175.514569
3288.402232
6105.207422
6134.014459
6582.057117
5636.047621
3883.669656
4027.164375
4301.576009
5409.160941
4023.126458
6483.207774
4157.336401
5428.657018
4636.972257
3464.187546
5172.387885
5450.687075
6488.511431
6330.059313
5149.306004
5643.127476
5288.436799
6220.211745
6239.001573
4919.013781
4962.558498
3578.724649
2087.922034
4065.977046
7437.703946
205.2550939
238.8677675
4338.995711
1803.882134
2215.914935
2695.645198
2857.010232
5313.767311
5709.433904
4908.367991
5911.793012
5578.254531
5280.441445
5214.858295
5761.841861
6255.812171
6257.643678
3554.862387
4115.928945
4531.10418
5365.18922
4744.863291
6825.429339
5991.855124
6160.434386
5260.372398
5073.028832
2865.011106
4918.904851
5773.762411
5494.178243
5313.676982
5025.062673
4763.248242
4788.153153
5803.245659
5326.959638
5961.194275
3861.625738
2757.804958
2125.419608
177.8169062
177.2941966
3420.438646
671.5546831
1703.892022
4269.616659
1358.226848
2294.108951
4935.064112
5083.264275
4419.507237
5368.382479
3492.804139
5844.728214
6545.314421
5063.260024
5254.623874
4297.549162
6282.9271
3514.043133
4238.00493
4710.089147
5542.976065
5454.391285
6099.013585
5038.305764
5629.477816
5277.074756
5102.528003
4961.215288
5650.323696
5691.017423
5879.391078
5152.044358
4679.187834
4413.560856
5495.350245
4084.363677
2892.378373
4450.852114
2467.786131
2069.130528
240.1316699
4163.608713
213.9602785
3528.544238
5520.85428
5354.506264
4971.957888
2940.254603
4240.625021
2086.958286
2893.227032
5490.628334
5914.908609
6106.705725
6691.431948
5741.238103
6448.35394
4420.926272
5846.403502
4336.566799
3219.142978
6014.268997
5827.636155
5677.180894
5081.143617
5527.591677
5934.291392
5378.09496
5689.181414
5098.156728
4606.473433
5832.473492
5367.796267
5728.609813
4690.672363
3067.861167
4334.825745
4961.024052
4676.364361
2943.421339
5041.795488
6448.448741
4826.126819
6949.696259
7017.513636
4125.371978
4415.787852
1577.512431
2302.11018
2342.464054
1761.858277
2694.578068
4711.736127
3633.708237
5273.46026
5063.379458
5038.208071
5764.562246
5753.799798
5743.225518
6336.891346
5574.904361
4751.775097
4705.480328
5053.201115
6326.526626
4774.752007
5037.367294
5211.767479
5994.802117
4132.948309
5770.161125
5643.278825
5260.214939
5916.265909
5312.480776
5643.680088
5797.231529
5057.459869
5332.224856
4237.114558
2180.972281
4442.642823
3875.897093
8170.79766
5223.827302
6867.087536
7040.649063
6349.513492
4579.547082
3638.543072
3548.034216
1881.563167
3959.39488
5166.598369
1127.075939
5248.059988
5881.902213
5938.843886
6700.550355
6575.613729
5336.210164
6071.835976
6211.490768
5060.166284
4234.481599
3695.302415
5071.98959
3127.602219
5134.162752
5662.83673
5812.44679
5242.804097
4376.482654
5020.751907
4872.94352
4916.008755
5829.032411
4351.248148
5875.665231
4467.02154
5563.426891
4283.076738
3900.890772
2607.329391
3990.887116
5752.616616
7159.377421
6501.965311
1580.899514
2150.225334
5166.990776
4482.591765
5108.54632
3892.044061
4164.67863
5191.213777
4741.449729
5421.256297
6160.056752
3654.547976
5591.998484
6604.969033
4755.048428
5840.323493
5469.285339
4257.589374
4697.927218
5366.519345
5919.215752
5366.467202
5911.977563
4583.922555
5541.912845
5151.499307
4997.781828
4428.285694
5313.075195
3482.897782
4023.823432
5685.405246
4823.47697
4683.259513
4520.257867
3509.801221
3928.034937
4410.840605
5509.254699
4795.581218
4736.903648
5297.510897
1214.443085
3204.117276
1014.76977
4120.417504
4699.197181
685.6179653
4271.754602
3941.949372
4415.577236
3440.088987
4978.502345
2752.693776
3924.88939
4380.234452
6134.598363
4632.38525
6040.096609
5429.809577
5162.02635
6727.873229
5708.51804
5060.325135
5387.06471
5282.776068
4559.333397
4429.217774
5242.301946
5247.633657
4461.628276
5876.290612
5718.923092
5762.222306
6396.200223
6366.727472
6799.011449
5872.545282
5319.449189
3971.15959
7231.959721
4822.368496
4701.305759
254.7350298
262.1107537
2782.107626
5763.069584
977.6576145
5660.403132
5364.410383
2707.807335
3215.33237
2642.564058
5776.004421
4521.188258
4788.217749
5751.117868
3757.906904
6477.244272
5755.081104
6484.086353
5307.001025
6062.050063
5081.862381
6488.264299
4327.638275
5932.400457
5450.508652
5713.433015
4947.309412
6060.185593
6078.058949
5780.231182
5623.998846
5505.274441
6572.609323
5134.045278
5302.432788
5938.913556
4494.24437
5344.379267
2742.726581
3660.523864
6406.581434
259.8795724
261.5026798
260.4355085
3646.810761
3920.605658
4806.741869
3875.670519
1675.295811
3295.9544
1477.916333
2593.941836
1353.285451
3801.894248
3960.303248
4112.833511
4296.460195
4075.645171
5522.662268
6676.326153
6143.844265
5727.727019
6286.328229
6266.04656
5724.873466
3842.400383
3409.254015
6039.935581
4090.276874
5469.128723
6564.251839
5724.293632
6092.257998
4800.804604
5763.196375
5354.841455
5364.273996
4568.109066
5497.009622
4327.307836
2922.514044
6129.51502
6898.260852
184.3169447
847.3973413
5497.645515
231.2618288
199.3033856
966.5000853
5332.240868
5255.975422
2886.4852
3353.856474
3656.952309
2811.827895
5818.551297
4119.420162
5598.29834
6050.288658
4647.750204
6337.495437
6199.232534
6269.823348
6477.379582
6296.305276
5405.831122
5821.376094
5303.059101
4588.494927
4130.58599
4779.764292
5607.058595
5636.252166
5009.595969
5830.607527
4397.037402
4716.74921
3416.410177
5539.740181
5376.127395
6002.388654
4521.503316
3009.643786
10021.33747
1645.45157
222.7832991
5033.539507
2646.254865
3042.934065
5726.27214
4463.865652
5851.385862
2271.434572
4409.101479
2977.593116
2087.042628
4292.738222
5810.71815
4428.946709
5090.169059
4969.436238
2705.339498
5081.019874
5664.75782
5688.140525
6073.616357
6285.767915
5658.991583
5880.669327
6197.510522
5768.800811
6385.895724
5317.160626
4712.138455
5116.520927
5597.638294
5427.80251
6597.250731
4903.793339
4426.026012
5428.293537
4695.223919
5402.469554
4700.69089
2710.099337
4566.140689
181.3258576
206.9418178
5471.250733
6731.180196
5637.99835
5145.455703
6864.338483
4432.222747
6342.81606
6581.685494
3635.405249
4816.473835
4922.549612
5080.484544
4385.24453
4527.026904
5733.705403
4891.717289
4606.764789
3965.568411
5581.947908
3794.750531
6154.822704
5413.146756
5363.597213
6391.174542
6144.954215
5371.681411
5878.345921
4272.23039
4409.015652
5253.10874
6009.198702
5426.695537
5211.739027
4567.019228
4902.499366
6201.702843
4606.406142
2298.559805
4985.775229
4970.358889
231.2619419
255.7640645
982.6376252
1380.281909
527.1422935
5188.903119
5535.635196
4948.456194
6055.043414
6818.955446
5556.725244
4768.143423
6012.725189
5203.590673
5056.170425
2768.220589
5341.473682
5432.04891
5459.947597
4959.169219
6198.058408
5246.161359
5087.822212
5587.014147
5600.489976
5892.934609
4978.86537
6638.412482
5467.491671
5731.84532
4802.461983
3195.724769
4036.591333
5560.45615
5574.405679
5735.945052
5415.990283
5522.458016
5452.756536
4872.97435
3119.242809
4391.858343
176.3093479
170.0577283
170.1597966
1415.587582
3843.831318
5296.049896
4671.554871
3090.423999
6360.930096
6249.118751
6394.491512
6655.349331
5341.735268
4219.811066
4665.87344
4258.456051
5021.216362
4804.835924
4260.113534
3013.939423
4361.451419
5047.307861
5279.307989
5101.673984
5146.935523
5655.363618
4624.141448
4701.64835
5803.875531
4991.290002
4897.229295
4793.608365
4977.933546
6021.295817
6167.177186
4246.597727
5235.667381
4611.066021
6249.738592
5339.363283
3478.754899
4751.415402
164.8193574
170.3807685
5523.641034
4959.2507
2825.274225
3389.948398
5677.864929
5325.157846
4749.597207
5352.526757
2690.327842
3437.537284
5645.872331
3811.326593
5897.520849
5001.320483
4485.136488
4690.580243
5747.632436
4039.914025
4449.173851
6009.294392
6673.611087
5401.165644
5179.032378
5018.667346
5699.008555
5474.43037
6136.711448
4542.232855
5921.854314
5915.634261
5006.008912
3867.1322
6441.663816
5381.769956
5309.993626
4599.481779
5554.1567
4677.72722
4869.647343
2964.067965
6247.054
5574.369161
6987.166469
7172.638847
5864.658145
4105.086545
4530.396225
3574.057396
3287.041126
3616.303246
5209.191185
2790.930328
3412.486279
3067.78827
5040.365354
3735.602153
4721.247647
5958.543771
5511.081518
6577.017628
6420.4483
5418.106301
5326.358368
5381.331172
4915.654832
4278.147734
4952.428364
2559.948306
4675.508947
6061.161142
5370.137809
5287.160111
5976.391724
5682.591226
5494.996596
3910.947409
3487.878467
4748.720266
4633.775095
3604.518568
3531.541537
1829.667279
5813.305149
7647.602933
7991.41719
7471.469315
6611.718898
7896.398491
4362.627359
3145.313598
3429.507142
4982.796853
6189.597056
5122.989627
3344.136492
4222.560727
5889.161761
4394.493414
5534.29903
6797.849518
6530.145671
5549.034957
3505.508078
3275.848863
5485.610569
5352.333271
5920.224174
6054.48573
5003.134056
3395.238377
3878.145349
5011.664646
5703.052716
6319.68918
5436.441467
4826.032512
4593.890031
4397.93832
3496.305383
3734.006199
4324.336837
2785.852949
3400.269399
2359.406942
2946.034324
6519.893485
4117.53085
4391.425245
5801.128497
4653.366562
2996.295013
2006.174058
3021.447953
4402.040183
3893.644804
4725.797627
2079.207591
4166.650406
5413.126047
1817.319032
5561.168926
5014.967926
5998.619847
3736.065135
2670.721991
3587.803247
4388.608765
4564.870215
3702.365152
6261.002497
5642.741613
3274.149118
3841.410487
4238.146183
4840.48253
4681.050677
4489.531731
3827.669089
6026.897763
4748.224558
3879.957298
1559.811423
4230.037591
1370.198316
1774.56316
6250.697558
8204.534518
6652.416589
7868.701093
7753.62216
6915.561148
5344.285766
5807.276711
2907.132402
5321.629456
5197.990461
5502.891853
4615.845807
5215.218749
4708.367211
3777.662587
2252.008315
3482.834999
1959.052402
3601.181307
3405.411139
1146.810674
1956.171474
3886.916882
1430.007487
2604.0854
3395.478724
3215.808509
2778.02547
2950.523403
2899.204547
3551.233864
3168.755721
3872.949612
2947.633824
3578.732895
2498.828373
1374.415692
2356.632104
1761.947211
1908.323055
2738.739576
2323.569238
5111.312662
5960.137224
6718.072956
7510.212399
7255.557326
6644.873213
7508.745581
6859.620631
7842.630768
7417.727128
7038.950369
7587.009526
7083.607032
7021.281283
6231.578452
5999.333032
6490.657289
5695.442933
4799.802624
6614.168825
6243.350217
5568.026574
4849.634225
4453.843105
4364.866855
4862.79935
5854.663782
5378.248807
2691.334338
3894.446093
3637.380783
3152.835988
3245.984753
2864.613112
4268.600077
3137.263552
4735.929472
4901.999732
4898.251045
5628.160663
1958.125971
2146.112403
3799.239455
5773.301237
5289.74578
7024.632895
5573.56422
5669.536727
4651.678131
6746.650015
6712.2782
7075.387886
6169.33729
6293.689169
6785.141179
6751.351015
6716.774927
6589.788631
6462.407289
6844.143562
6620.910003
6531.893071
6646.424353
6176.030183
5798.689459
5871.157618
6264.380957
6397.314344
5899.386061
6064.01863
5562.048967
4500.735531
4814.545611
4682.53114
6107.310408
5712.515375
6252.929166
5780.173036
5747.643528
6066.842
4869.970774
5127.694458
2089.747459
2732.171874
2878.829495
4220.374721
6190.61796
6212.319303
5105.853427
5240.399041
5793.611363
6116.41025
6606.261765
7406.245464
6110.891816
5148.792352
6495.655897
6786.766469
6598.548689
5891.087925
6667.43002
6292.422144
6143.773312
5992.305122
6138.167799
6150.902887
6094.945418
6304.920006
5926.972856
6028.507144
6205.128131
5895.373019
5855.864068
5877.080854
5877.486955
6373.110685
6115.741459
6396.073904
5964.097585
6047.838855
5061.882052
6175.397039
6351.604816
5447.691935
4200.547664
3806.792931
3745.049622
5408.121812
4464.879373
5943.393338
5301.999423
4548.162078
5299.590395
5267.546324
5863.133731
4920.42865
5292.735717
5096.01419
5152.148288
6296.706231
6008.726254
5375.203422
5689.063355
5755.107742
5706.440452
6007.230444
5647.328558
5967.305741
5808.449656
6152.284947
5719.329165
6132.220353
6250.394131
6309.082051
6223.757477
5834.414007
6527.084807
6428.990749
5943.511604
5830.798219
6111.93022
5594.015203
6508.880128
6190.304341
6247.902042
5696.646189
4134.429182
1955.552961
2969.453507
4662.798812
4869.735683
4669.867382
5124.577831
5185.149292
5004.922222
6094.421641
6460.895733
6405.824806
5561.651448
4700.308299
4963.401763
5329.049376
5169.915939
5899.053862
5485.89836
5249.311699
5466.252856
5666.169366
5583.883174
5686.325302
5268.739709
5996.811878
6089.254838
5858.442739
6262.514532
6257.203887
6066.475373
6346.996316
6311.693645
6234.43279
5664.903905
5785.961494
6339.670162
6450.314083
6368.765413
5729.242777
5997.618313
5621.960532
4295.979977
2353.642167
2986.997176
3995.927055
3925.283283
4157.373165
5489.70719
4515.391864
4673.433514
5661.790995
5031.45569
4798.512343
4683.260268
5462.927515
4272.346502
4310.064919
4795.608956
5054.695765
4429.40299
4449.219443
4140.882447
4587.014773
5028.891086
5381.518544
4534.758683
4593.724367
5567.248986
6064.51101
6333.530468
6077.398407
6017.510716
5878.135312
6729.982387
6618.878446
6205.305656
6054.241121
5547.281011
6439.066551
6867.404098
6333.830873
5455.468888
5055.988103
2873.09537
2105.987093
2902.376642
3601.623972
4167.496646
4791.096322
5080.5264
5268.4747
5628.077692
5619.505125
6020.064628
5442.396178
4616.620128
4572.817639
4264.70263
4068.051777
3778.158072
2868.159396
4303.078418
3783.985859
5396.08991
5912.866512
6738.597224
6108.67086
6259.964165
6439.689601
6404.706534
6365.346214
6886.875685
5923.307168
5253.155657
5848.563362
5995.52317
6060.365724
2811.813008
1989.629343
3339.970555
2781.54275
3146.096921
3836.995843
3930.187092
4266.224832
4023.096936
4347.090634
3974.291313
4159.010045
4045.730893
3751.723168
3383.066473
2441.613869
2935.641352
5443.16524
5495.578667
6223.997155
5833.900491
6120.408618
6419.635287
7368.807264
6815.114663
6452.524448
6955.758267
6408.308404
5934.532007
5414.778306
4134.617496
2288.181428
2820.494586
3268.31269
3282.385145
3562.692471
4318.285256
3523.875003
2879.908255
4417.280938
3700.222726
3281.07541
3678.825145
2607.735924
1104.658963
1130.964691
1148.518734
1147.605862
1158.180986
1152.320877
1135.977065
1112.549852
2816.385478
3702.690923
6126.33632
5827.538384
6518.364502
6142.504415
6063.043522
7032.473729
6121.370876
6076.003294
5966.907378
4813.663227
4270.926247
1977.354814
2613.492398
3165.270339
3285.680579
3991.756904
3837.795199
4029.80229
3554.507924
3352.343997
3012.605621
2563.218801
1110.601876
1159.949406
1213.299148
1233.497961
1256.675208
1265.097018
1272.796876
1269.937755
1233.652399
1212.672773
1170.848169
1119.408721
3916.508503
4902.641758
6875.409532
4534.024893
6543.231576
4804.131789
5509.909603
6336.911841
6001.643738
5171.907336
4338.145672
2043.976207
2429.452163
2465.809463
3307.45957
3435.610485
3257.279636
3736.803632
3336.723269
2973.749572
2442.794405
1096.665703
1160.351945
1230.365653
1270.29878
1307.306344
1356.988366
1369.944714
1384.506677
1394.483346
1380.184013
1359.194459
1328.117923
1284.365952
1231.743345
1167.109169
1114.275872
4298.914029
4916.360797
7605.488295
5430.160556
6911.860543
6785.575606
4827.656871
6660.857309
6193.83127
5736.276246
1982.433935
2774.584329
3274.784451
3510.645602
3947.975472
4493.477481
3763.190972
3445.203103
2645.47319
1119.341297
1189.986706
1256.384268
1318.948472
1376.675849
1426.258148
1469.306364
1488.050381
1493.269461
1504.253552
1493.68766
1476.230468
1439.42598
1388.122906
1329.275705
1272.298608
1213.963223
1136.734516
6173.023546
4825.119458
6572.299726
3304.457296
5860.777527
5910.955334
6829.318074
5850.520911
5285.776478
1561.397374
2052.507878
2419.892725
2728.180865
3354.562408
2683.758104
2685.671348
2808.575899
2208.09933
1117.753793
1201.30622
1274.543082
1354.412522
1422.056947
1481.891287
1525.825893
1575.235117
1591.310875
1605.458823
1606.662001
1606.463579
1569.807012
1551.027477
1506.579259
1429.437182
1366.224624
1296.566361
1226.049902
1138.240791
6052.85903
5990.234536
5837.936508
7630.381142
7685.962185
6410.267142
5881.709805
5219.36628
3665.164043
1960.051642
2692.053258
2273.611054
2998.690127
2580.055734
2753.924423
2445.243819
2242.647051
1095.547928
1195.482237
1273.481029
1366.787596
1452.26654
1529.52136
1577.371801
1618.042587
1657.050339
1665.931614
1689.442599
1691.495127
1670.717957
1659.368579
1640.512658
1600.066194
1529.462459
1454.755683
1372.98513
1301.932176
1215.103327
1127.787572
184.700751
3109.033848
6824.426704
4180.364906
5951.507786
6015.999923
4530.663489
4368.59835
1469.178004
2036.841504
2709.628923
2955.479398
3265.287207
3176.726447
2865.854025
2347.059131
1159.273303
1258.035428
1345.826473
1451.682294
1539.330696
1595.075876
1665.303714
1695.32159
1718.057289
1734.884993
1753.010523
1755.446539
1739.695947
1711.323611
1693.74111
1672.09691
1612.740147
1534.937401
1460.279583
1377.124604
1284.627271
1186.189914
3338.439242
6223.238207
7532.322521
4891.417234
3649.68671
3342.500559
5592.381435
1588.963702
1412.926816
2006.226874
1992.29554
2753.630098
2894.419743
2335.560713
2218.883984
1116.197147
1216.259612
1324.486435
1423.498516
1509.557749
1603.656004
1673.64831
1706.515538
1761.36635
1806.00263
1844.4238
1850.648757
1871.612816
1847.583027
1804.047455
1756.948405
1732.473709
1680.199178
1623.551055
1553.430174
1451.725125
1354.612989
1255.229562
1151.509865
8212.497251
5433.041379
7195.495363
6003.368624
6437.615287
6114.640765
2009.493473
1268.666308
2324.24324
2683.237857
3346.01571
2891.069264
2557.97316
2384.550465
1166.219308
1270.554344
1381.249471
1489.522426
1577.933148
1653.773915
1699.624432
1764.884782
1843.268346
1942.879971
2028.296029
2070.414072
2077.73921
2029.802694
1941.486619
1855.583081
1786.404995
1718.950017
1667.123975
1613.808158
1507.865079
1412.979128
1313.21984
1204.072265
188.9728019
7685.921046
7444.349301
5079.167448
6810.047865
598.2432619
2823.421401
1621.268123
2897.168002
2519.363178
2608.856336
3159.859201
2505.939476
1100.14043
1205.095251
1307.281448
1416.857076
1537.517533
1623.975672
1686.331453
1748.307865
1846.445328
1992.762931
2158.697008
2306.653049
2367.45282
2373.305014
2302.331261
2156.325333
1995.147621
1853.405466
1759.518565
1700.629524
1652.390667
1558.327501
1456.027021
1350.968032
1251.470128
1131.453846
1516.472709
4122.845045
7037.41878
7627.519411
6209.993483
4302.679974
1623.195478
2215.598039