/*--------------------------------*- C++ -*----------------------------------*\
| =========                 |                                                 |
| \\      /  F ield         | OpenFOAM: The Open Source CFD Toolbox           |
|  \\    /   O peration     | Version:  v1706                                 |
|   \\  /    A nd           | Web:      www.OpenFOAM.com                      |
|    \\/     M anipulation  |                                                 |
\*---------------------------------------------------------------------------*/
FoamFile
{
    version     2.0;
    format      ascii;
    class       volScalarField;
    location    "3.989";
    object      Trot_mixture;
}
// * * * * * * * * * * * * * * * * * * * * * * * * * * * * * * * * * * * * * //

dimensions      [0 0 0 1 0 0 0];


internalField   nonuniform List<scalar> 
50792
(
799.7385371
555.7238738
1060.251971
359.970481
392.9561755
695.544752
646.4856017
502.7047731
513.3704308
511.2165007
535.2736429
437.4403039
453.1803658
678.7673936
613.7781977
545.2719347
377.3995435
395.9129407
432.8099112
509.1545799
1047.061843
791.3282002
883.7489584
1065.214255
901.8141551
805.332804
1362.910277
994.8589005
876.1828909
681.2817115
784.4386537
832.8302906
1095.630784
816.2285776
1139.366578
842.2684952
797.6536932
1398.227874
812.2872312
722.9843752
1026.490537
923.9692189
203.7856153
220.9281444
216.9881903
604.4328455
300.609517
292.0507268
935.584669
593.9092133
504.3680014
360.5755773
357.2837478
327.890941
375.7037745
422.4912916
1088.697998
548.7038654
681.5163083
838.6694922
1246.870903
1051.504165
1106.76415
784.0752653
673.3064458
785.0708635
933.4692877
877.7917466
803.240895
854.417022
1074.441
1303.111744
972.7599597
864.3295641
1035.229539
1559.750021
977.0179924
826.3463693
1139.421467
1148.682012
844.6076199
707.5278546
401.8458064
396.9807948
576.2833926
221.8862609
429.8057152
454.1324382
222.4086074
279.7353043
702.3613937
332.1398579
340.9131514
392.9664691
513.0424628
578.4536997
987.0215776
803.7877014
1271.324953
377.5308845
783.6599331
507.1759634
1096.584381
620.957728
699.9956236
719.9899884
995.0059029
977.9978305
1109.709496
862.481893
929.5061368
958.5721805
1131.078572
1621.780048
1585.999567
1464.710776
999.3880622
637.1335622
707.2422314
1013.72257
1361.501027
883.457102
584.0109537
921.8221469
979.8528027
1298.669706
1058.345588
489.2641415
513.0870675
471.654701
387.9581953
201.8489214
225.5001175
197.2935286
241.8516922
587.4130579
1574.219411
1244.840986
422.7728284
444.8450346
495.1334027
517.5762021
630.1691182
623.1285352
1120.81753
1023.840243
1209.772866
1180.921936
1408.976379
1853.805563
1532.863562
1455.564496
940.6042454
902.3798426
1415.89894
1671.244112
1392.660574
1305.490576
1100.732318
1111.831186
1204.334078
1218.826739
1047.044723
1150.06648
975.1271899
1809.058056
2464.598414
1435.020286
1079.450776
400.9092873
485.750447
380.0989861
217.2192276
245.4482113
325.6901681
414.5611271
448.7391203
675.8224706
490.0993707
554.1764187
326.3563808
431.8294582
623.5157905
573.2954439
753.1589576
898.0016401
694.7270162
882.0209084
773.9934625
896.6841373
1227.661078
1443.824816
1311.853028
1489.82735
1216.548877
856.6513455
838.0714497
1230.143411
1224.925502
850.2661855
814.998733
476.9655671
597.9383438
954.6897041
1191.778284
1426.517693
1760.531377
1782.908474
950.3119522
1176.284606
435.1336342
275.5271722
430.4700181
229.4239108
340.6948659
349.3882708
205.8014167
211.0626039
523.1509991
411.4000622
588.9515474
1178.377971
757.0562932
731.3375554
616.2799516
387.2140186
579.2344763
871.4488396
810.5391917
972.4570467
1395.798762
1535.850356
1498.259393
1543.157976
1372.121013
1060.20561
1322.80006
1029.384478
1269.163206
1079.310651
1030.777241
971.9360139
824.0622568
552.7897993
708.3975577
1107.028694
1203.940425
1333.781812
801.8030046
980.4817143
1387.066755
1068.047246
1143.454681
210.6871122
335.7190909
246.7927661
266.9561818
284.3108412
489.3343946
268.6975474
256.3581725
288.092127
537.8129277
476.170206
910.1310672
1397.131255
1099.717538
892.4109145
979.0116981
1213.587873
1341.422907
1493.013354
900.5202684
1228.599576
1024.334358
1023.420386
1013.075583
1192.981519
970.9002548
1274.880942
1344.444079
1020.241292
888.0722563
944.6609513
631.8686819
875.2446509
802.240102
657.9682752
832.5779598
1241.912059
1329.283091
1538.281148
1582.037853
618.1433094
553.1273656
212.7495468
241.6454394
254.8242253
279.3531189
362.1633841
422.6262447
567.5159762
266.9810045
833.9764394
996.4799515
615.0253083
477.6899199
548.2085669
625.2209826
638.9279045
707.1310965
696.4930501
503.2962811
955.2572913
903.417625
1229.5935
839.9744971
1112.906438
902.9159827
1134.981492
948.8104435
657.2822655
754.7131949
646.7602639
604.5511264
617.1015128
436.098461
830.0898482
887.3303546
726.111175
817.978306
768.7297505
1021.174586
769.0272495
1078.134699
1134.426061
797.97053
305.5984941
243.5411326
769.6374433
145.5661408
531.8963897
1513.06649
901.604646
918.8858569
852.5078404
665.2781957
792.8795405
516.4478422
718.3159342
672.1381541
1104.953958
771.3208474
493.4394505
708.6932913
714.755493
1091.863639
1074.352484
577.4017553
651.1362241
679.0408293
682.0201937
654.6676262
695.4452314
1206.574633
872.3956514
484.2575956
703.7774986
1780.384915
1569.867203
1120.32046
1066.18231
1156.405576
994.755087
909.8714308
1403.894091
930.5106081
1144.23553
958.9669398
276.8607859
243.1718605
218.7813015
335.9406945
272.5504032
337.0356037
653.9925936
649.2117364
681.2020336
886.6185059
864.5670845
545.1398043
988.8512383
1636.84241
775.0352667
508.2272672
901.8523536
1086.84022
864.537541
950.8542545
798.3353122
977.4114436
947.5410269
1475.705369
1068.299617
1125.370903
892.5424341
930.3153873
713.3346296
682.7338148
629.4657844
398.6188037
1064.232281
962.250406
1012.523061
1029.400896
1532.359635
1488.607977
1449.481386
1408.612315
1089.801007
1712.165041
129.5668585
179.5568713
145.1092805
402.9103824
408.1343483
289.7559023
548.589307
1183.819107
733.3843469
862.1255512
975.8161856
830.4742273
1110.462354
1943.526133
660.3588599
1059.290966
860.9904878
1078.694951
1359.033248
1139.084707
1124.297551
1348.803905
1138.72405
921.9187572
1051.901538
988.9421438
1290.600163
1301.802661
1130.464089
1039.806382
994.2549698
1186.560452
1120.404847
1252.744059
1132.904233
1078.962457
1091.231962
1009.197302
1268.646618
893.7293612
1243.979898
2679.888666
286.8909671
260.8381037
234.2187342
207.329132
482.8636813
490.8293176
405.454791
577.5442749
388.2331732
343.2122993
634.8260769
951.2063039
759.0168889
683.5830276
466.6219657
651.0084055
887.6607111
1039.236104
1128.867464
890.139082
1177.751553
1171.009641
1142.142019
843.8033243
987.6265743
770.5243109
1142.693192
1318.504785
1789.849534
1245.109274
1209.125359
1434.537754
1065.466307
824.5476497
1074.910702
1654.825388
1279.042242
796.2062873
644.3824205
979.4520598
765.170068
611.2147496
233.7541842
204.3556122
201.4349101
173.4675392
428.9450985
931.1795088
354.3981912
356.9535043
260.5233342
658.6884981
896.805425
1031.490634
896.5843406
773.7383909
407.6836849
606.4871995
932.9940136
1333.588805
1001.820025
815.1388877
750.8628956
908.6424808
838.7550554
1005.746549
988.0162805
1800.33247
1311.324634
1122.690543
1702.486652
1408.830766
1130.184634
1253.321432
1259.532086
1483.938921
1233.551835
1037.916994
817.502132
1546.586602
1079.850559
848.9161722
700.3056437
1175.099444
819.6784891
401.6809139
367.753006
540.8578974
520.1924814
321.0040597
427.148815
336.775799
919.9564192
508.1148694
697.0740582
821.460794
286.5929393
880.6203662
1195.656625
659.8499966
440.6467461
583.4950475
400.6390846
255.9923749
595.3859333
1059.843042
1064.398517
936.8022967
1569.218024
1400.00145
1560.651888
1115.90528
823.7865385
720.8492933
901.3940925
1063.674362
1352.361985
988.2102407
731.2396083
1051.292383
1326.802241
952.4054426
1351.200465
1227.511962
1043.178407
790.7113777
391.0470826
380.6854561
442.5599316
289.7318292
277.4433402
398.2595992
694.5507183
468.0755991
643.0398795
592.0921892
815.6177081
486.717734
790.6668094
381.9596548
531.6268753
541.4524063
678.8245959
817.5897519
1069.542711
1211.75856
499.2052224
1706.532254
1299.993677
1339.698708
991.7205251
1016.440637
1255.02062
997.2400005
1277.727128
1333.177596
1175.245918
1369.263685
1085.222909
1038.269156
1133.637186
1015.177407
868.2433215
746.8511244
440.2821114
830.7505621
1117.454246
239.7597301
157.3351268
196.7115969
293.680651
545.4346075
785.0269014
870.6184832
1098.398311
936.9949771
700.023255
633.1342139
570.8558421
919.8422611
862.2470211
453.3881086
695.7248536
820.1232968
691.5640982
590.8997978
1247.252726
1427.365011
1261.718546
717.6357184
1642.726608
1000.5426
1251.012486
1300.158433
915.3778947
768.9828345
1294.565605
1567.880786
1121.061454
1160.01253
1109.073923
1416.456522
1121.228577
1082.360483
1332.017222
935.3251104
1281.013977
1163.660098
825.9934585
616.7169637
224.5441538
199.3459252
203.2735302
242.0470765
168.0811892
331.9396824
516.5167347
626.2468331
833.2197667
809.3379191
404.4975715
481.3715435
469.4675036
736.6079488
1281.479767
1044.37951
920.3732728
1089.781622
739.0003104
551.8517568
1060.151991
519.5462214
1295.511077
1989.313468
804.3002882
837.5607962
790.0775849
1007.925118
975.6923803
776.9944136
901.3536119
1389.603958
1231.425476
961.1771697
777.6721383
1292.597046
1190.023576
1233.509995
1040.709011
788.5711983
748.4709704
736.1678158
201.7666259
290.6281785
240.272603
336.4916046
231.6623348
404.9382958
492.5126743
1022.285411
1022.536348
935.7518177
930.0119982
938.8745823
784.5766617
639.194319
622.0521358
728.3690539
843.4616179
818.5262166
1287.947291
1091.483012
1299.733222
1290.257302
959.3032769
1196.863981
1685.32942
909.9654517
638.3344862
677.945047
803.9356786
979.0843048
803.6001877
726.0313705
843.8187857
899.8557615
1214.821221
1244.527859
943.2492186
1123.704666
1156.469212
1155.71552
627.4866718
689.6357506
172.6119889
534.3470246
218.902417
229.6517122
243.4989045
287.3268766
585.7811545
889.5436866
432.3632124
656.4717749
581.2073018
712.2104309
668.267747
671.7236854
602.1092439
1154.232679
1223.590154
629.7601219
864.4358511
823.60658
834.7514473
1345.340104
1052.066739
833.699437
608.8719313
1880.107801
843.1932709
1135.991133
1245.553056
902.2165503
1369.177752
1181.903453
1188.006408
891.9818048
1148.346883
874.1413588
683.9510111
569.632262
568.2231983
567.5709803
722.993244
903.19236
259.157158
369.7691069
284.1157131
203.4967174
263.2394923
243.3178876
482.6219309
323.3516752
486.8437583
496.2630865
627.7098665
537.4639864
466.6934123
528.6613282
761.0200157
1825.296002
1802.693443
504.3747602
813.889279
825.0364474
872.4896128
948.4084871
880.5808421
1400.669507
1252.165836
1507.449497
2158.563387
1241.883132
1715.312917
2108.178638
1200.113751
1095.023423
913.921645
1125.987545
954.9843448
909.7969974
976.1401841
832.8407219
1289.075555
1200.019732
1940.384687
1097.284877
175.0583158
184.102392
170.2302026
328.5214247
289.5416232
246.457961
478.5758346
465.5581105
434.0488448
377.7369534
673.2210091
874.0852493
767.0873602
799.2064607
1285.549764
1379.314022
1031.6666
965.6185611
784.7289197
1466.539309
1720.043155
837.3298776
1040.951835
1390.482299
1841.260481
1480.227548
1148.35741
1460.721617
1455.638756
993.0704262
952.6889041
1438.201624
1497.815356
1284.357988
906.1302204
566.3284021
975.2572528
1346.537735
966.3795038
429.6646003
401.9978022
938.8697754
204.7681882
513.4426405
270.6578701
431.2264983
717.0966214
333.9095655
264.6851626
435.0924403
546.0500542
1098.610387
899.4815258
686.5076319
857.322732
674.7626647
955.3952776
988.8794263
659.5870102
682.6029998
1168.93768
789.2288045
1246.151649
1511.541017
1492.785436
1436.248045
976.6165632
1186.02887
1069.333258
1132.15319
976.9448684
1379.630951
846.3321753
1108.386464
1241.486494
1017.145291
666.6833004
665.5363148
780.8183164
906.0250575
776.5281341
717.3937921
435.0144404
797.6802438
189.3923921
253.4311051
194.9908195
651.2594927
903.5970318
976.6877972
817.1414073
563.8739701
332.4913502
355.2877211
395.1467752
529.7179906
613.2408575
398.9453336
632.8570014
445.957657
760.4298886
1168.228733
1203.611158
1097.157758
1114.473136
1100.779772
935.5459353
961.1234179
858.2547629
934.9983392
1058.096898
1056.318349
615.312269
1050.451029
1849.951807
1565.323496
1036.735902
1133.461182
1097.916972
1230.623312
1120.551189
1229.520797
1123.255378
897.3292049
870.0878161
906.7428621
278.478549
253.5731682
322.588569
242.516534
264.1637749
532.1749355
513.1448846
710.459037
630.7289749
1017.305647
874.7308729
907.1433
929.0698363
1156.870335
753.0393714
733.0977087
960.558874
495.1025534
414.4796465
1187.952759
1534.264098
1574.823579
1335.272894
1375.53768
1582.224459
1282.873062
750.922037
468.0008704
621.3487557
472.6971893
802.4672325
1842.508482
1214.662702
627.054839
824.5348254
862.0066068
1009.23774
730.9263732
668.4575463
647.9288474
708.9513718
907.3543812
366.3675704
304.820539
285.598638
155.6399656
163.0309743
445.8465852
716.8333457
756.5871328
683.9006535
862.5191923
827.6332969
604.1346974
615.0966951
899.3096116
996.100121
957.756929
1091.365518
996.2197275
1288.842675
1143.788523
1244.372036
866.6386506
874.4193643
1090.632021
1610.050704
1103.897885
1084.647152
1020.79624
682.904024
1473.508016
1080.423413
1349.924279
1579.288523
1102.184373
1219.259926
1251.303153
991.8617186
1236.850583
714.0558433
970.9403714
515.0436615
1362.810871
366.7583911
310.8252968
185.8259916
159.7785045
576.206717
678.3529681
397.7902525
324.0644776
209.3905346
173.9578907
306.8946989
329.4002924
723.6750856
727.6379054
823.4721646
1422.224112
1634.95878
656.7664359
742.9772806
393.0260705
527.73436
984.5129635
806.4789976
735.3747739
1118.263799
1469.036041
1105.519019
918.2693267
1674.422134
851.0134261
839.2088209
844.5087928
857.630453
908.7137832
1203.382613
743.5143994
896.44936
906.1293351
1015.874663
1399.343707
735.4472808
1040.850534
494.3146024
775.3256234
506.8242935
453.3094484
431.5778829
181.6874542
223.5225033
196.6073228
240.5610522
482.0667101
561.9050026
972.220486
1100.141488
949.0298087
1067.378585
1049.486525
1261.230199
1122.437359
850.423707
857.4194469
870.2728603
558.6454139
880.310229
1158.244023
1053.307596
578.9854557
771.1402959
911.7493428
977.7170971
989.0483939
736.0654691
699.7548233
967.7975721
945.8851995
934.5002307
1494.898056
1168.536775
1360.137686
963.7151516
522.6433364
787.2682142
1070.399233
2383.583947
1222.968101
623.5481259
993.2383512
382.5246039
392.337561
274.019924
476.0518096
563.8650172
1117.62288
683.0826819
547.4015722
1193.240139
1007.294917
656.8895784
729.6934294
606.353943
1153.689828
1040.231244
988.8813827
897.0105973
855.7426708
680.6546234
680.1055146
929.097147
756.1309883
769.6323261
600.5907557
699.697978
696.3633985
1407.91066
931.8468825
439.2246881
908.6312315
703.1005828
828.062337
1011.569859
635.3775993
772.5256573
715.2789182
749.3259565
1550.881542
596.791621
833.0934468
459.2933817
264.6866348
308.8747105
405.4319706
526.9563703
679.2280929
331.9339984
356.0990111
509.1011195
815.1215474
874.6752701
697.0793501
753.0783858
1186.988412
1041.938354
534.1010626
617.691026
915.6955263
713.8703986
725.2493636
1323.81399
1100.778447
801.7316486
971.5934031
791.3106505
872.3671603
1031.453995
978.2054551
913.8886625
749.6382645
766.2665923
1150.136736
1524.360256
1166.702105
667.3979367
656.3021754
598.5621185
629.3720779
563.9682393
837.5511276
355.8026095
252.4436196
286.7580765
188.1351369
204.5083847
252.6873574
315.7976469
458.2860401
234.6279611
421.0582474
487.7175663
501.7033008
792.9037047
1609.737807
1091.525723
879.7891032
1344.418206
906.6447082
495.1394074
755.9875589
786.9894819
643.0582858
1189.890884
994.5019183
608.852569
490.2084772
909.7975814
852.9118586
586.4116192
825.9843154
695.9430551
1109.872672
1782.514308
1412.777617
868.8003311
866.0153245
817.5644566
1161.558915
815.2809583
524.8257384
568.5277271
643.6066085
362.8167327
433.6464141
241.0415137
231.8513666
281.6385361
280.7310258
388.210765
447.5345604
907.0085562
447.9203568
435.6877576
603.6520899
551.1753227
682.1993201
1004.065508
1596.427243
1263.188833
1403.097119
870.7654871
1085.053088
947.733966
1064.761842
744.3680365
1059.707774
852.7329984
676.9982526
672.2583401
824.5144959
784.2582742
1465.540947
1629.589391
1451.491528
995.6408941
910.1889454
578.038859
603.834807
677.3020862
884.0256501
630.7727608
976.6440678
1041.883057
655.354464
244.9660246
265.2387656
265.2649923
256.4802772
344.9173255
414.283918
478.9767221
912.1612406
573.935261
594.3528692
435.2183055
523.0784941
295.224181
603.8902761
648.1705415
887.4396619
830.8048224
725.1966877
1283.733192
1439.042327
1234.110655
1016.223026
988.0720199
878.517665
668.7449677
675.1223031
638.5924299
683.2841324
1510.875246
1676.567651
2171.818796
1682.711858
2158.356318
1028.402725
923.7783875
1137.612373
1642.205374
930.924994
830.8604107
692.5312616
653.5728289
1721.546094
213.0698186
176.673123
246.33661
661.562615
210.2419226
222.2839415
230.4552841
324.3721141
734.203144
715.4778502
736.4444012
1225.786194
700.2236688
913.6080623
1129.381227
1011.464211
1371.258441
1431.544054
2014.764919
1069.095593
735.3670837
1067.636947
1177.028464
1213.726979
977.5540264
803.5644943
773.6439348
686.6033805
636.4470344
837.3701275
1020.39775
1278.337441
930.2421049
1267.208776
868.0817577
1288.852997
820.2524103
1493.72749
1311.810124
1069.364957
1518.719684
1055.132406
153.6543555
148.4169687
379.4889576
199.9543646
201.8200594
225.8518555
481.2681963
694.7810268
524.4296459
393.3177304
387.4493223
442.3721018
586.3232002
606.837064
439.1299831
700.0961591
833.5538861
734.7758564
708.1220637
869.8378909
857.6154898
888.5264632
1003.586065
1109.97624
859.9503859
1046.402659
709.3299276
828.2571328
770.1808669
653.2542691
1009.00773
1388.597368
1169.405543
1106.688366
631.7694084
1288.990069
1107.584458
1154.970547
986.7333552
1470.803116
902.7171236
363.9617661
266.9578985
238.2652366
272.0796391
319.4080073
210.6654536
332.6146802
629.0012032
619.6024807
692.0150586
837.1086226
744.3392442
743.2508622
682.5114527
776.1534962
924.2851633
861.4496552
683.8799149
841.6214264
726.2178472
1237.78658
1213.080575
699.4642449
794.5130335
1028.528413
721.2261177
880.9157786
926.359201
1008.302346
1488.36196
1322.267721
984.8801733
1080.002231
1494.282864
1166.661711
958.8227064
1060.228082
965.8645779
1199.391217
1520.781528
1292.63559
1875.351889
1932.082419
283.4711538
288.5690635
244.2721007
217.5761376
220.2921424
570.802219
427.4125097
704.4143991
631.9740867
773.558669
648.664199
916.4760734
907.1102989
936.246475
984.3352987
1175.847556
973.565311
922.8954363
777.7893369
943.2243359
594.2797036
699.0176641
832.089208
880.2893138
1231.547669
1371.157172
1554.376866
1481.444126
1260.378084
705.7221167
854.0131444
1028.991625
1312.054634
1322.823292
1337.899089
1441.045606
923.7198981
1308.655612
953.4726867
845.9871742
562.5307579
2392.146331
172.8562051
174.3271567
193.2484974
483.1929889
418.5004561
297.9010165
459.7621717
434.1449541
688.4088677
510.9985626
509.1576371
502.000999
621.7004539
783.8000881
617.7994814
960.4005754
787.4415751
870.3934246
851.5210494
348.0420278
591.0076875
445.917744
803.2344676
1417.183934
1119.900661
844.3341206
754.5968278
891.4935674
1281.462865
1561.595063
1378.477431
1485.969573
1212.386333
1102.585532
811.6809566
901.3746019
753.6204326
765.1889282
620.9811786
816.5329664
579.9938182
796.8065236
165.2404834
147.4371393
230.0705861
577.5832767
311.3845702
224.3752701
361.171743
392.6649643
427.366077
1154.135033
889.0871451
777.2945164
577.8343879
626.445602
541.0096707
595.50754
576.2386274
1059.419672
1069.333156
813.9514975
957.373159
511.797313
850.8076968
940.7162032
691.1944914
707.034142
661.9546905
690.1435116
778.5460328
1129.195213
1159.95339
1184.186647
786.1647415
1185.380031
1155.70741
958.563434
1234.54916
1026.61274
1002.814261
664.8641971
1589.506776
1417.609909
230.5572304
177.0380894
456.4767663
366.9019913
272.430861
296.1589267
499.2920975
405.2124836
804.1447342
797.2892638
317.859637
297.5576938
334.2178006
340.1225281
600.8181573
497.3207975
635.6071663
978.1126538
900.3685857
1075.947919
819.4727915
857.1280594
1077.143664
1164.168765
1038.83098
540.865392
595.5859399
566.7343332
504.937159
673.2465562
1167.422853
983.0832482
804.0067493
666.432246
565.7508948
573.8048386
405.7617716
415.3107675
598.5969601
433.4035066
438.0418616
645.31312
249.6392395
320.7689271
730.8662331
280.1850429
917.428694
758.4283537
632.9606579
565.5356765
404.2965224
416.009707
864.1619214
446.0785954
386.5094217
783.3011792
1401.589123
1019.754901
738.2678501
1082.788925
759.0584751
984.3151492
1063.942137
713.1923026
1112.591946
853.5698409
1284.726672
1092.580495
665.7960569
322.8365669
400.759509
619.1075139
485.6866327
920.3865653
979.7991158
798.8749637
468.95125
406.1053357
539.4956137
803.2823635
487.4451312
1048.558756
925.7406601
580.1378806
332.9929281
622.3206783
273.1848008
163.833048
472.3929943
628.9216293
612.1556903
609.1468507
472.2678932
560.8614265
496.8121771
402.1951281
433.9938072
1102.558771
1327.324534
1070.649656
728.4365674
1001.419925
902.9055241
875.8849995
776.0063609
872.6906459
1291.962991
811.9696945
586.6193943
913.1498341
635.0730101
570.4815873
691.0349147
698.8352603
894.6135975
1283.508646
788.3734364
1151.35287
1308.457046
840.2910887
810.7239069
374.6569073
483.5378975
499.7584246
436.2112982
1099.004686
917.3829291
726.9498818
930.6287311
322.2585015
601.5599856
467.0142044
401.8253077
308.7576128
381.55633
700.78343
400.0133027
402.5735352
461.9272844
465.354793
304.737082
701.894441
545.9310133
582.6046742
611.754452
879.2919394
644.6458026
635.9650906
750.4565533
475.8892536
542.1080043
718.8643492
731.6270971
706.8682139
686.9529968
702.0233412
520.0763317
582.9851041
748.1993567
684.7134622
847.9647536
644.2289175
517.8504673
504.3701416
524.9807467
478.2129073
735.9067163
1385.305346
1067.682631
938.2525085
1115.021031
1542.507105
1392.379957
931.7155262
960.7728249
624.4298219
821.6226985
493.5856412
726.7407291
758.3016986
1176.574806
1189.312151
658.3940367
927.5806346
1029.312166
980.1253604
1007.072115
1331.687234
1312.980053
1094.904799
1280.904961
1156.201515
1320.254402
1181.987166
746.9592457
926.3743677
908.1858336
765.5039493
649.6442325
528.5145956
438.1098151
636.7410652
943.1620153
774.4002302
849.4555667
989.3336882
1077.586388
656.0820804
734.8354543
1169.004647
1052.058045
1103.431021
1195.673607
1321.394756
1185.591235
821.6512617
869.2186302
864.1497045
1037.999757
826.5307319
873.3049896
978.7055511
1375.431868
1271.997551
975.9901576
1047.886663
1367.334636
1488.369504
1267.23136
1500.684085
1438.180301
1200.649187
1138.013858
1069.464754
1269.126504
1051.268708
1110.184019
991.0932575
1030.970515
837.6517773
953.1113362
1154.317177
1117.152395
1203.707918
1116.281561
1284.420614
1120.999499
942.5656471
992.5210175
975.4763543
867.6795636
1093.203112
1115.532811
913.9549011
903.3004553
835.8264402
913.3187871
959.4386585
1053.77708
1192.298238
1031.738474
976.7630427
846.7133013
1053.970708
1417.027078
989.388176
1316.247812
1638.44645
1445.720528
1114.274117
1276.087736
1207.125203
1369.671448
1379.751835
1094.535057
1342.354559
1142.835692
1099.121585
1129.401142
1215.508887
1320.725494
1297.590871
1398.871314
1833.691443
1490.406476
1600.803443
1162.691027
1125.195916
1170.160068
1140.009234
1114.250964
1341.783821
1209.198159
933.5382986
968.6834348
1121.08085
1055.107541
1170.868717
925.3415765
976.2717511
956.7299031
1226.141107
1200.068589
1124.635748
990.3695104
1238.106145
1392.232168
1450.558537
1643.15277
1715.248093
1752.554519
1520.143362
1320.070362
1636.306735
1385.281182
1417.811852
1545.38501
1693.3909
1387.383097
1346.114992
1441.001235
1585.483689
1469.574068
1580.031519
1828.660135
1756.901408
1695.037294
1702.727736
1627.115787
1700.463528
1767.827765
1539.287654
1600.31887
1537.460272
1392.893725
1019.791101
907.0952209
729.5560357
995.3233181
1110.595319
1106.045112
1207.14891
1128.149025
1168.535576
1070.078803
1079.80625
905.913338
1009.84843
1233.268236
1486.70224
1496.92746
1565.74411
1863.590404
1852.324175
2471.892159
1917.474539
1690.958466
1758.669854
1658.660752
1349.378268
1241.982785
2211.634342
1418.432355
1406.18504
1438.580407
1642.861399
1092.787767
1332.102385
1243.46779
957.2912454
1308.872026
1208.800599
1479.110967
1323.073376
1243.781185
1494.603409
1161.184599
952.4100544
838.6491748
827.7950998
865.8182244
965.2479161
1311.496483
1158.818821
1082.750112
1047.152836
1056.685878
1030.846896
1103.663439
1216.640759
1132.710993
1656.876619
1453.072273
2159.283376
1928.778121
1941.292918
1908.82435
1674.158898
1686.490182
1319.227705
1337.371258
1088.011723
1403.233564
937.2086902
1202.760856
1199.71588
1071.387709
1909.966202
1137.147926
994.408483
963.4699423
811.9183405
847.2051658
1060.504864
1298.560368
1315.724324
1091.027629
1047.770665
1040.176412
969.5103185
761.8777432
1145.308472
1021.817008
1005.717152
1078.908292
972.3632943
871.5010073
922.3950979
894.9786476
1100.222682
1219.133485
1455.013985
1447.109495
1810.907972
1785.19942
2088.768085
1551.002878
966.5387392
1151.71181
960.9136699
1931.963797
1462.828257
834.7814128
692.8353872
1601.13755
897.5911531
907.5569258
1091.043045
908.6397249
580.3969102
970.5138651
889.7465068
944.2564724
1557.605537
729.6291382
742.9883693
1140.1033
945.0917574
1164.558273
906.7367512
913.4247768
1022.578448
1023.707773
990.927424
1328.486667
1733.090404
1494.964757
1616.690994
978.7592968
1052.155618
2300.91379
1194.980215
789.8753362
557.4718817
1090.106368
2337.120659
2326.674391
2214.695652
1926.193908
841.6230543
901.3537203
923.6714035
1115.114408
981.8788149
1177.121293
938.9152984
743.434535
911.0224226
1012.450414
1041.290903
966.3800888
1118.671116
1149.558083
1347.461644
1704.087018
1784.687959
1097.342484
1123.168128
1132.825961
1128.030048
1137.572295
1134.716718
1123.304562
1101.031377
1882.724814
865.4428466
905.83869
666.7527851
569.930029
543.829378
615.2096942
975.4795844
901.9113722
425.8531197
604.7314807
639.4354531
849.7912703
1267.177803
991.1667411
1049.53058
968.55948
966.2116008
1029.06155
1136.965828
1057.646756
1040.953022
1401.585498
1685.136324
1094.718405
1135.49819
1187.060398
1204.784008
1230.234567
1235.557351
1233.334997
1230.822017
1211.20265
1194.876623
1147.411519
1105.727745
1605.606631
539.072744
614.6446953
290.1350787
357.9919086
623.6171353
541.8396953
626.4172018
641.1673354
826.0654885
580.9425225
1878.357283
1181.139556
1180.279025
1024.642319
1038.525846
1072.964056
1109.857871
1014.537321
1409.869327
1593.203587
1077.342492
1141.836632
1203.93183
1241.606177
1269.64788
1303.079425
1319.71482
1313.734839
1326.289687
1319.980027
1312.224914
1289.003945
1237.629369
1189.519259
1133.114222
1093.77731
617.0267434
718.3832761
500.314107
704.3346363
865.3827491
1077.84018
485.7073192
910.320336
971.8042257
868.5593173
1523.751854
1257.346956
1436.883128
1543.443277
1083.483814
1029.392528
1267.028839
1323.459437
1645.454964
1106.520441
1172.122042
1218.328853
1272.329189
1322.965901
1358.976878
1393.671955
1395.203024
1406.518554
1421.512921
1411.928018
1405.370259
1368.611375
1310.084939
1276.387978
1233.174348
1181.361202
1111.228366
1239.145609
491.6994319
605.1730404
383.2849972
349.2259143
700.9777163
643.3290535
799.0307928
990.7176817
1218.220473
799.0856184
1045.830247
1201.204249
1452.048671
966.4520871
1290.93103
1439.557774
1605.886569
1102.390859
1178.986664
1234.653582
1309.293014
1355.049543
1399.153042
1433.778831
1468.975351
1483.637933
1504.248182
1512.387218
1512.026005
1462.174177
1448.975013
1413.229417
1354.78658
1305.716808
1257.975528
1190.024698
1117.316039
1421.41881
343.0726621
328.0334392
761.0188633
1436.10061
826.2343243
465.953985
464.6785892
483.5579905
1935.752633
1192.36297
908.342967
1007.914987
1122.723045
1240.572001
1011.493887
1459.143378
1083.096542
1184.282123
1235.591269
1310.970494
1382.582963
1443.475106
1488.820573
1530.043603
1547.573185
1582.621902
1600.580475
1604.731372
1573.886672
1564.794231
1539.688069
1496.774502
1421.913909
1370.060376
1311.298525
1252.986116
1179.515748
1103.673575
135.7360745
330.0499591
1345.185316
365.0260959
533.2872235
530.8629884
1235.525085
1449.701465
1536.017433
1054.358552
1081.614452
1358.834238
1401.217554
1148.579801
1340.975721
1708.879266
1145.808283
1225.077676
1296.258476
1389.72742
1467.981852
1507.794602
1579.067717
1607.164043
1647.592776
1677.618256
1693.785197
1684.386882
1673.575284
1647.342049
1599.828926
1572.12178
1515.108425
1426.512083
1383.777717
1314.591505
1242.170287
1154.723677
869.4425557
1387.239237
1391.51927
496.188201
287.3596284
423.9768848
877.0693662
371.9569547
944.051487
2227.250353
878.9314313
1170.24772
1007.491013
1087.429584
1313.017198
1109.660213
1192.5016
1287.570145
1362.92214
1434.024419
1509.967833
1592.326282
1633.209299
1697.509598
1743.0008
1786.189634
1793.291025
1800.550384
1787.628883
1739.660696
1677.796276
1659.270564
1576.234177
1527.078721
1449.236882
1364.006925
1294.561376
1218.172964
1134.322175
977.9533422
369.2830894
495.9850344
450.5583305
666.23059
704.3266461
254.9991017
1043.539964
2198.421401
1307.717767
1583.978959
1243.590065
1045.841832
1596.70697
1148.513551
1233.982118
1333.41138
1410.427988
1488.206022
1570.260079
1628.181248
1714.976593
1792.330823
1870.628342
1940.272947
1982.708425
1978.550086
1940.600111
1867.755422
1792.721188
1705.540324
1631.506761
1562.562687
1492.66793
1406.692974
1346.379972
1275.14095
1172.919727
139.081255
802.3321992
375.2146706
571.8297691
967.8726481
235.3965839
358.4302432
1355.169727
1139.920295
849.1121204
909.6294613
1016.744544
1300.68156
1087.046122
1178.328296
1273.213325
1362.30494
1450.50108
1521.088092
1604.259539
1688.529811
1791.070282
1916.271781
2045.831748
2164.174892
2216.642992
2221.821319
2156.964209
2035.062544
1899.943346
1773.582107
1682.236255
1612.838165
1539.555053
1463.871269
1374.944499
1309.298318
1209.859544
1111.169118
662.6193626
662.9672908
827.2098465
813.8735345
457.9193298
792.2570749
1204.436324
1079.931786
1059.2125