/*--------------------------------*- C++ -*----------------------------------*\
| =========                 |                                                 |
| \\      /  F ield         | OpenFOAM: The Open Source CFD Toolbox           |
|  \\    /   O peration     | Version:  v1706                                 |
|   \\  /    A nd           | Web:      www.OpenFOAM.com                      |
|    \\/     M anipulation  |                                                 |
\*---------------------------------------------------------------------------*/
FoamFile
{
    version     2.0;
    format      ascii;
    class       volScalarField;
    location    "3.989";
    object      Trot_N2;
}
// * * * * * * * * * * * * * * * * * * * * * * * * * * * * * * * * * * * * * //

dimensions      [0 0 0 1 0 0 0];


internalField   nonuniform List<scalar> 
50792
(
887.4417836
490.2974653
799.2988533
401.6404708
283.3205544
614.672373
695.4080447
598.2806899
563.523419
571.3903623
474.8164703
434.0512619
549.592062
619.1150668
634.2381704
478.568701
307.4502077
334.9000299
450.5567501
368.1626178
1036.33343
733.3886763
796.4978054
1096.462519
994.1087488
944.7809819
1242.005523
1006.723779
992.5252456
654.3857509
736.5508131
776.2516597
1123.905782
904.203885
1071.825209
881.0476601
694.0691547
1336.308239
729.6473745
743.5095221
1057.162302
938.0436458
410.6531132
228.442298
209.5179294
661.0216519
296.9030087
264.6768964
1125.890661
282.525675
548.7457043
241.7082039
340.3070587
181.1440309
245.0178257
409.6524683
881.3966812
359.1816919
505.3274229
730.0232321
1129.546962
1086.037836
1435.131318
901.152229
631.8721327
857.8373713
1006.957591
952.2860762
848.7519861
938.5755862
1246.779549
1400.782812
882.8829516
922.2229063
655.9025829
644.3954929
524.7756246
717.1969478
1290.903474
1194.250091
985.5669679
742.7702613
418.4749851
263.6470904
573.2909264
192.8234221
458.6427978
478.7403839
223.8609941
288.5512469
262.517229
269.1521106
349.8501311
287.4248806
525.1839489
487.6990657
739.3047282
669.800484
742.1162713
300.2664596
852.5343859
492.9804227
1228.249075
695.2844209
747.1829123
715.3897406
1078.228002
1032.542968
1192.950298
881.2865009
972.3951169
907.7300991
1135.920557
1730.586201
1511.359093
1235.523342
870.0813662
745.0180504
756.6028627
1156.440208
1487.952587
996.5683513
591.3362769
919.2964047
808.7281302
1168.303351
1211.866241
515.3557788
554.5131669
508.317552
411.957615
196.9650008
229.1207813
197.9440995
162.0201354
652.8039615
1769.886889
1255.897702
395.1820413
514.4491663
570.197969
575.0593592
613.6833244
671.1474464
1364.61376
1210.37434
1347.365683
1198.844467
1453.101057
1765.662386
1567.620197
1527.840653
818.5962346
721.1792357
1165.138002
1453.931977
1379.453021
1230.404277
1090.755274
1010.297772
1165.950443
1282.562929
1139.821917
1235.480018
960.4440962
1674.797435
2422.295352
1329.459247
1399.979475
439.5312868
254.2770453
297.713647
247.7737639
271.6199018
288.8459244
483.1927681
570.1625337
785.2686478
497.8299707
650.9743693
235.2688416
384.4829845
635.0704045
578.2619574
703.3996085
949.9931173
769.7152896
1026.418109
867.1076935
992.8836735
1362.256857
1594.862871
1190.083089
1432.0287
1131.274043
861.1433292
825.9650925
1438.326813
1381.004008
898.6123844
1025.672105
449.8974197
613.6619272
906.7112259
973.367658
1195.13342
1281.701705
1437.844584
911.4808097
1166.378783
438.7204373
285.5494291
468.4160462
233.6290091
270.2223018
390.3033561
204.5068434
197.7479565
559.6239935
410.0665581
598.2489801
1258.804598
850.1185983
741.1111908
623.4416671
359.1230334
581.8225382
919.5110416
844.4179901
938.9022255
1557.159595
1824.556013
1590.593864
1668.353554
1572.1695
1164.708075
1467.841927
922.071451
1186.927267
1191.153484
1095.611262
1138.429865
894.2965543
549.0034824
808.514846
1079.468331
839.9585862
1079.050279
894.789528
1043.471482
1382.824747
1042.425467
834.1422379
223.7039141
348.3592547
248.1413625
274.4617357
276.3478425
498.6208404
277.3822938
269.6589
218.8561143
569.7963668
493.9955472
1012.602096
1356.239232
986.544789
759.3747838
789.3794951
1271.607555
1344.228946
1285.126131
683.9110537
1247.571238
1071.127405
1166.653975
992.4541365
1336.115611
1088.155641
1299.571567
1348.834258
924.8035143
791.5490622
983.8463686
632.1890649
974.2271116
896.1904096
743.798985
818.9155463
1052.527885
990.3051418
1184.795157
886.798719
553.0670648
566.3904956
231.8596872
273.9512154
268.9960663
291.9753172
272.1688698
444.8569682
680.7565699
292.7117067
953.5168321
888.3853439
562.7315278
409.0115745
518.3602054
700.5265953
728.3863419
802.8908238
793.3227289
439.4583199
981.488687
1036.1867
1097.58622
613.7136744
1333.058443
914.8582928
1054.971577
926.6276322
757.8111018
792.3707245
670.3503886
575.4680867
527.8858133
478.7200944
833.4621725
938.2094083
710.2149234
748.1804254
719.9955895
1098.609629
848.9292118
1232.72154
1249.900014
824.3485955
345.5316911
259.0640718
877.1180238
151.780161
589.8557072
1784.594901
939.201639
982.5926126
788.6593537
616.9315443
588.1695271
614.7241596
846.6685927
659.3739119
1208.533673
807.3979508
456.9668084
751.0258542
864.0172493
1123.943732
1036.170395
597.4659762
571.4998686
749.6033439
752.6496679
722.5899935
751.3213174
1108.392516
947.740164
784.7365417
859.610359
679.7567148
1352.903147
1148.80917
1230.081427
1285.179528
846.1501751
595.9148742
1276.933968
1029.00413
1301.410046
1004.614019
263.1046429
216.4152238
215.1516647
361.4354977
299.3215826
243.4140715
748.0718594
727.2816094
731.7793899
906.9779434
613.4880756
444.6726505
1127.061784
1219.695958
839.0178399
522.3852448
995.9255777
1166.216528
852.0222994
1032.289888
875.7347886
1079.685531
1040.887578
1669.446473
1210.112265
1197.796095
981.1806752
907.719358
845.1444469
654.7100831
626.0939315
334.5886953
731.4228087
875.4164004
848.6058461
942.5276075
1645.252678
1773.768681
1490.814175
1335.348991
998.7379355
1859.264003
130.2270595
147.3361619
144.4409601
422.574123
426.5889381
296.168519
585.1398998
1361.958396
809.5505537
932.9039378
1114.254449
780.1388749
1223.622004
946.6890442
516.0953608
572.4674979
1004.655316
1014.245006
1497.128216
1266.141117
987.0822637
1168.550129
1213.264441
942.2463211
1024.369369
947.7342972
1238.631415
1279.175421
1287.488978
893.7765193
983.1900061
995.02774
785.3082774
1050.751735
985.9514942
989.6040458
908.282971
823.5731584
1263.287385
935.6021715
1295.179509
2870.761091
291.6350096
280.0360085
244.6391977
219.8215584
537.679476
270.8445205
448.7912249
608.7422518
440.9985912
382.6032318
755.3019889
957.7721257
448.1433344
829.9329012
512.5257045
646.3872297
736.0771602
666.306974
806.725895
612.19708
1109.38518
1028.250947
1196.958067
793.2502287
986.572878
770.0171321
1319.344246
1364.65669
1316.907524
1357.529554
866.3253065
935.9501762
1298.49726
935.5225824
874.2084026
1411.417543
1220.107889
859.3624902
748.1315788
810.0862058
620.1254891
614.9958271
221.1992221
207.3061137
194.082897
169.6231946
489.428658
250.879543
381.3846331
383.5201894
276.2613368
772.3826241
997.7469897
1085.779798
769.7557245
605.0394406
271.6850565
592.0373467
986.8273484
1211.020419
979.2627585
617.7183276
765.393426
1153.664222
1021.118967
1118.688763
1217.300659
2247.560064
1560.892397
1256.934358
1140.837241
1050.791132
1151.155741
905.9689231
748.0008493
1123.754714
1037.203232
864.444875
838.8713048
1659.635335
1123.533911
977.8441825
827.9721499
1264.192799
539.2088167
444.7336075
406.9483751
614.7940576
590.984661
307.6260977
349.5618639
373.237559
1049.554143
596.5647634
520.3240121
966.2400075
276.725753
537.1627034
749.7322047
674.9036579
370.3550693
563.67776
354.3509447
248.428659
297.6497491
513.084392
1078.83643
853.6130037
1644.500744
1509.009997
1666.643011
857.9564378
547.917928
656.557405
980.1710049
497.3278386
1122.272361
1145.259872
779.8993025
974.6911628
919.1044552
723.0995957
1288.348031
1168.996558
894.8247581
577.8317766
437.3481079
416.3588048
478.3057204
293.3412863
282.864912
438.2773794
834.0249103
505.3182746
662.0031588
487.1616139
848.1811398
469.0024195
400.998951
410.3526827
452.9882446
453.7434651
715.0497822
805.2098904
1176.91546
1396.747234
531.5767904
1238.364356
1521.888828
1456.629825
1031.311935
935.8499881
1190.410756
1029.420999
1386.563745
1365.970791
975.150881
1413.733091
1044.349595
1073.559523
1072.039291
948.9801105
1001.271141
799.8632884
383.0210531
744.0882284
898.7750106
247.0421481
138.3342749
191.9587195
312.3394864
322.2419797
259.7554733
391.615661
818.6356265
676.4678504
417.0503061
618.3341532
606.0650818
1099.675828
887.6936399
472.4851658
605.1735388
917.9557544
596.1279757
596.0045917
1433.503695
1710.276074
1524.900128
803.8591521
926.1826408
1061.51376
1144.154705
1280.385342
994.1011964
688.6848761
957.1293579
1409.77555
1236.862812
1305.014215
1135.648535
1381.378846
1166.529402
1162.501796
1330.587222
938.0679004
1398.971261
1032.367896
809.3663851
743.0379639
243.5091162
207.1261905
210.8657684
258.7594547
168.5906168
271.0966795
567.0325886
485.2502721
722.4808898
754.7896951
469.0144216
533.9247025
374.7967788
538.7465435
655.9437599
763.0008915
1101.582558
1202.870781
856.64724
649.094405
1143.421783
573.2984126
828.3455894
1342.037035
947.893285
947.6201204
769.3095659
1003.914383
747.358157
698.6792628
684.5031194
1018.541403
1084.641173
922.4286795
894.0128014
1507.274203
1326.282615
932.2034414
921.4744757
681.0272831
778.5513367
623.2242281
203.8794014
320.1977317
250.4939723
380.6696279
205.9276557
459.1089066
252.1143163
726.4604469
988.7735792
808.7817769
770.3230372
778.3294992
820.0974259
677.24093
786.6683073
775.4473561
743.1558843
809.3922816
1457.50703
1263.745303
1548.220596
1151.738083
860.3212101
1087.593696
926.8432927
1037.248521
562.1355223
453.4052857
714.8236459
825.1175382
635.4228258
678.332541
874.0621445
837.964464
984.7333138
1101.215541
859.3024428
1175.766419
1218.038481
1308.232334
577.95911
711.109585
163.9818329
616.284176
202.353251
238.0134939
238.668581
277.2457973
692.6029213
927.3490139
337.8114937
762.2387013
645.4894885
381.1288756
480.9481305
599.9760603
510.5814804
1234.735852
1247.580386
668.3169925
991.4567847
693.4082148
684.6802063
1199.129232
1091.639406
979.6424616
599.8076563
1267.435887
554.5665583
834.7213737
1056.022563
865.4681217
1216.193294
1104.948988
1121.032481
847.7848621
1070.635946
653.5337285
641.8761878
603.4846555
308.0174549
326.6429546
590.6364367
908.7165304
216.463613
395.5740856
218.2626789
165.8572838
243.8901589
215.798619
543.0980343
336.1567196
485.9342572
523.5627501
467.9533544
310.0507249
346.2292422
373.8919065
834.2156157
2238.225725
2082.493234
583.6942572
766.5948917
730.4038605
603.3611922
744.9402638
834.7708816
1107.782865
997.8367831
1265.477797
1106.912095
564.0938457
1237.624449
1572.149496
1308.321555
1016.747568
897.3228231
983.6552769
706.6300944
886.4915073
1053.918053
560.098879
1032.948678
895.2495904
1646.397618
1204.249981
182.7144259
152.0520468
169.2457249
235.3481906
255.7653351
267.0229273
552.4653396
537.047919
496.8255034
434.7947041
624.6868636
885.7706399
745.006152
750.7444242
1185.260296
1234.94714
783.5548396
845.6301852
761.585444
1219.408152
1393.114693
853.8022288
1172.744285
1663.632597
1784.870989
1415.27877
1205.830749
1163.480841
835.5974989
704.0286757
663.0813632
1601.856388
1643.224272
1407.725074
876.8482593
540.9450189
759.6660682
1150.321632
721.8505096
467.7573053
392.2752316
1005.186658
204.2970936
240.980965
265.1584319
412.1442966
763.6217439
245.1709001
257.8631745
472.0045402
574.5913934
1240.941457
964.6276018
717.6317931
924.592542
713.9366903
1017.517397
1124.624666
679.1413256
732.0882182
1202.652957
736.8942403
1140.805888
1573.591879
1516.552169
1279.945801
1029.575474
1034.280764
683.7421847
1073.024153
836.2734827
588.1754219
682.6339061
1174.096305
1249.544548
1056.41924
657.7970521
580.1646811
802.8558724
901.7866548
814.1960633
795.0733376
455.0222069
804.5826883
192.9196701
255.9676726
181.827652
674.4524071
909.2217427
818.7243823
713.3035494
523.1597066
318.6487498
340.0199326
450.0065191
631.6732671
707.6558031
429.2879029
666.2154092
487.2300214
832.0704102
1347.708103
1389.486896
1217.043822
1251.632678
827.8708054
719.6757189
911.5795106
945.469841
1058.992725
993.8052925
761.8084255
529.2850776
1200.591881
1268.477483
1155.860438
911.4346811
1244.586192
1297.267577
1431.939813
1256.081658
1356.218975
1236.094026
984.6981924
997.4420971
1070.126042
292.8265674
200.0747355
193.819221
238.4588877
263.9031982
604.8482142
593.7987052
366.4800865
690.349153
1152.66872
1007.82665
1063.547062
1115.836642
1289.46038
822.4341533
806.2060061
1147.301133
528.7490769
401.9771925
1050.158931
1573.612424
1633.209365
1379.853204
1213.79078
1684.562889
1341.509161
455.77552
423.9356913
425.8844556
361.7361144
443.3776917
998.0915527
576.6480157
454.3159524
590.2139551
664.1124159
613.8207211
693.1176943
701.3202885
726.6283597
782.0492136
1147.218668
121.1717561
143.8935328
325.9776964
172.5394129
177.8515322
521.8832498
421.2659157
528.5645973
764.1535705
958.7226758
807.8833332
540.698918
496.4073428
920.9144796
1094.095297
1156.63879
1293.100678
966.6382531
1285.456428
1026.327702
845.9045083
679.0968111
636.5676774
841.6115274
1479.311065
1220.049277
1155.932367
1072.221054
627.7883322
1151.851795
885.7818067
1330.916378
1328.311546
1082.332322
900.4571151
1009.326378
840.557937
1248.493413
765.1491093
935.2094451
590.0612263
891.1804268
275.1214807
334.7716785
186.4740574
160.0451275
630.0985716
825.0276636
454.0282702
280.8663503
221.993786
181.3407153
298.4321027
316.5990301
736.2266932
692.2898955
929.2693368
1663.39685
1677.334391
678.4471317
859.5028954
409.9048903
378.3649991
757.3599074
730.2136398
807.447448
1178.90864
1560.666338
1226.716804
1006.080617
1915.423154
850.7403781
746.4383436
849.7265605
856.9741492
997.2439729
955.8908474
738.8807126
821.8194189
976.4043368
1071.14807
1569.648431
819.2176095
1145.816318
589.0371767
850.5620991
568.8336492
549.7945127
493.7479555
159.8587881
211.6542293
184.9341161
245.3487405
331.0711722
655.384695
1147.664362
1098.535499
970.8114731
957.8282356
969.9134006
1270.455404
1222.27371
874.9270131
862.9320618
933.9662957
551.8828556
851.7909617
1135.764075
1147.974593
636.6606251
768.0162028
945.2276379
1104.640962
1026.832178
755.3343773
735.2072915
934.1022837
956.1588234
1168.039142
1739.438797
1378.501412
1527.190613
1040.148831
549.5449917
827.9223256
1272.460869
2476.692436
1314.445808
652.7913323
1138.87615
391.1142531
426.1311085
271.3074961
546.8390324
672.0867344
1415.011874
844.1076543
641.8513347
1086.387546
809.632601
704.0978921
833.5033616
683.0772338
960.775655
894.3312561
880.1083746
699.3847924
601.3236301
676.5094774
784.0379076
1142.737904
752.7646167
699.1786913
614.0638035
701.2666263
662.5180123
1544.56218
1061.393334
469.1390153
662.42482
793.3893575
882.0582133
1126.977217
670.9476797
763.2728891
713.6530463
701.5165473
1424.183287
708.7624909
917.7585218
501.3736996
274.1810993
321.9916098
434.7864179
560.3560331
645.8275952
311.7439131
371.7873794
560.0758741
899.1184737
890.9040728
694.0950706
674.5605902
1177.972927
1035.714693
580.373364
696.2362598
1005.436729
680.5109274
817.6094792
1380.714918
1033.253073
730.8366256
928.0656096
831.8533727
968.583641
1130.211962
1097.326345
1115.069877
792.0904815
873.486171
1290.039494
1535.414352
852.8121595
624.0720206
498.3560407
591.2871901
710.7697832
550.930706
1394.624944
539.8450152
233.9439187
307.5088676
183.5708099
186.2674955
202.9446538
337.9856096
453.506581
194.8110472
443.6756705
500.4347578
522.9769093
865.8624116
1515.929148
1226.3913
866.3576468
1542.709076
995.7352539
431.4290899
757.7064893
742.5866288
652.0971941
1270.670086
1058.54663
598.779607
505.760848
1022.740382
913.4925676
646.2883335
933.3333476
776.694398
1242.820053
2105.555916
1407.549881
980.089472
891.7748777
849.0610581
1245.27883
877.9253679
501.9070965
444.9529417
971.314935
490.2004242
493.2488962
252.3447341
244.9295587
290.9050177
272.1653637
229.1933475
382.1917927
847.508891
483.2506492
478.1614496
647.9528081
592.322929
606.8981409
990.6192002
1612.240748
1233.99107
1557.297691
1012.812152
1193.696773
1055.690576
1273.127806
880.2713213
1269.81899
965.6766519
878.1219837
780.0115414
811.9988345
836.3919269
1729.001915
1886.893932
1701.58735
1051.659314
739.8795367
642.5558583
537.2139926
636.5445868
616.3844762
590.6362961
865.2169008
834.4225422
448.9127811
215.648465
237.0528519
233.9086334
237.7182631
357.9914421
231.2658647
334.6021581
873.8427951
438.4693604
405.7473985
352.5400097
560.3051824
285.8147218
643.9430403
660.2737436
956.4289743
915.7058913
699.2605632
1212.238817
1633.34857
1259.502101
1058.225745
1046.34923
961.0115575
673.4399537
612.0973606
594.6812934
588.7340618
972.6835132
1430.155512
2295.442417
1863.742105
2022.598603
955.2247105
886.4466446
1102.337
1331.821781
888.0996762
647.6659744
682.8683472
779.7379962
1890.208792
195.1115443
148.3516397
235.8793537
735.129464
213.4122471
232.3824339
242.2368662
341.4313288
659.5176347
636.1526416
725.0728404
1301.266218
686.8353131
916.3938027
1142.719773
1133.068843
1591.108169
1705.548455
2324.296191
1003.987398
649.1643303
1127.088201
1237.001372
1146.082729
864.3205999
724.040565
860.6368798
787.2407235
550.9791348
802.8793389
1046.395698
1527.753015
1064.494923
1524.448439
920.8336248
491.6700132
710.8094164
1208.742507
1293.45327
994.9360144
992.0806375
761.9812677
168.9785477
150.4824652
403.0543806
197.6643478
198.0363036
226.447461
502.0740328
712.0425235
441.3980736
404.6613576
432.3445077
283.1412522
492.5028937
650.5662413
453.3372073
729.6876481
898.6258364
725.4898685
669.345043
827.0062832
933.8253743
885.1741796
1006.911511
1046.437207
901.3248524
1121.075882
763.2448505
845.6583448
672.1724508
688.7817942
999.8311456
1336.394564
1268.118048
1331.853075
645.9346676
1333.867479
978.8471091
1045.722443
960.5767702
1542.952074
830.3455957
412.5208858
254.0392022
233.8445593
263.2185392
334.6478553
197.5475702
270.7012488
671.1670496
620.1422064
541.1100441
917.1343816
835.5664134
683.7309707
549.1313522
910.4296379
1079.735323
885.5124365
481.6108947
967.6162598
691.2021957
1157.257574
1041.240146
627.701783
783.9019098
853.2490189
711.122787
933.2995443
892.2937484
1010.124715
1416.031254
1133.16667
796.6045289
781.2603064
1452.921041
1225.330993
1033.389485
991.2582596
844.3344304
1247.443386
1454.413518
962.5104602
1882.602189
1493.799783
315.2656661
320.869701
262.8245421
226.4480381
229.9979935
631.7371948
463.6152376
738.8818045
516.5119908
649.3740891
545.2660604
838.2485394
629.4058199
428.2087332
475.6324124
950.2203048
877.4830261
659.312574
702.5130981
998.5725007
666.794945
785.7200971
934.7343436
1014.46594
1384.821141
1435.487937
1726.86449
1664.276463
1337.406882
614.6084729
598.36079
854.8840916
1092.350098
1047.73353
916.5901963
1256.023029
607.8621613
1079.591579
887.6547857
951.4529052
604.8783264
2342.429495
185.2506919
191.439095
205.2754169
612.1142871
506.3029699
333.6302512
534.3068779
325.4812622
793.1147062
495.1149189
474.248392
551.5755347
710.0568535
924.6468299
648.8583395
1042.906756
872.469157
885.011348
876.4980445
313.1957103
645.2218686
486.1100304
938.0636617
1578.930852
955.8274883
842.3538404
772.4980283
717.209139
906.8946065
1274.781142
1432.336527
1716.980392
1345.331795
1115.534956
473.7531563
669.7405052
681.5768619
828.9405688
649.9813946
817.8775102
633.4310885
785.7114508
167.9493489
146.7524677
246.0128261
655.0890346
352.1381437
245.4073961
402.3762526
347.6334577
487.2780317
1263.931005
679.7783379
448.3442337
624.0960739
357.4691705
502.9827018
455.1871566
532.2366657
1062.154333
1108.365261
844.1504355
1088.232403
374.8613763
910.8308038
1095.301775
794.062575
721.3654159
772.269723
821.3502818
769.7107154
824.1801994
1167.837296
1368.578237
608.1164438
881.3873483
1075.386941
952.6567085
1295.574885
1070.61957
1004.55378
680.2823428
1691.072883
1454.3023
241.8870789
192.5154521
480.0467126
390.6353594
290.5553046
214.8443687
550.1201133
388.0482009
918.9565624
899.4502978
337.9600246
320.5201516
352.7995133
328.3609071
575.0470913
526.1572664
738.7792344
1083.767422
999.1145634
1142.140479
920.2842177
1006.247153
1136.477186
1345.621423
1245.142059
585.2185557
670.720541
685.2254129
579.2673854
609.3040017
1000.340652
923.7499932
934.8252347
784.4528885
637.2341274
581.4155327
420.2747225
465.6512987
685.5780742
413.7704211
383.1149349
671.3597309
257.0938554
342.6399877
809.1005689
297.1193082
1087.655575
821.0524117
649.5025107
541.9382631
441.741514
449.0260335
969.5789666
484.1961637
327.557835
633.350642
1252.430391
723.9288128
673.9322948
1171.286384
783.5871828
731.4322129
936.1350832
661.0638145
1215.071199
952.6566965
959.4568001
971.0356052
639.2099777
353.7468471
437.945139
688.4657929
491.334802
995.1688701
1085.364333
813.1360083
479.8315493
413.372392
519.7640737
1048.228557
547.210427
1053.825122
1018.633736
545.923062
417.5018197
747.6090167
304.7668464
162.4876063
492.8253422
719.0684476
689.8881534
681.081127
533.4880415
641.7457642
570.320861
344.1470898
412.9006218
822.8280894
1447.119647
1163.456344
422.9630736
659.8313281
668.7930672
493.5731543
315.3964948
532.9737866
1017.097253
594.8191445
515.6126414
905.8722768
680.4941864
635.2376683
784.9198772
784.8425323
868.6314964
1466.242038
883.4950064
1367.74783
1490.108503
948.6266463
899.0375725
375.7183213
545.6028225
572.2615977
487.3955078
1085.059198
1000.302474
767.0576916
985.9634856
329.1806534
636.5830458
487.6479899
418.0727301
321.6995583
376.7726057
502.7314988
374.7098863
350.3646889
479.7447549
506.0487443
316.3021681
778.4040972
591.4932249
561.5720655
629.2318474
711.984502
596.0869496
567.425361
766.4848333
348.5131056
514.1513877
807.6462546
830.1591275
805.9969324
774.006406
703.6952623
539.4189022
659.5881203
867.6546888
773.4641635
948.3342153
709.2553708
550.6080396
536.6588542
487.9482367
384.6555905
684.1387179
1442.539207
864.759535
916.4070423
1035.945987
1500.297246
1444.482274
941.4716821
1053.032802
597.6472538
518.6591769
520.4075411
821.020981
722.6330818
1284.788766
1379.154926
612.3162894
853.7687206
867.3103558
923.4238695
936.8846722
1397.161861
1468.428321
1264.007679
1510.563256
1218.636101
1560.678488
1326.313997
827.7256707
997.3754471
935.3373583
792.8431968
674.7954391
495.2748968
448.8219908
588.9050554
925.194262
686.2626765
795.7790935
1082.736367
1118.312306
623.1586888
664.8403701
1327.284556
1095.034383
1170.390891
1158.537556
1184.71225
1171.955026
667.9914496
911.4921626
770.6713865
912.4034029
799.9520665
858.4835737
1071.993991
1482.132835
1268.602139
1025.43494
1064.105946
1257.852125
1300.631601
1208.823839
1680.67741
1563.682567
1254.294052
1129.298759
1049.794394
1372.982462
942.3527805
842.6390262
1003.783194
1120.444741
841.468281
1007.410967
1117.101748
1153.666824
1156.514133
1053.385825
1239.875766
1090.505009
887.1713598
1059.340486
1037.844672
924.2502789
1333.367543
1198.3761
949.4866246
870.0158859
725.0376004
932.1207537
932.4046704
1110.031303
1160.951982
947.6908192
792.1655312
863.3633574
1078.820584
1499.879972
962.9908345
1417.619638
1641.935279
1460.374719
1174.478069
1286.967713
1220.871276
1310.146981
1353.000076
1122.755376
1529.653179
1071.388218
1011.728941
1141.719801
1024.750439
1236.914594
1210.734595
1419.902438
1991.503375
1566.743767
1582.226664
1015.197479
1018.062619
919.5798242
876.7994961
1000.867705
1208.55518
1183.306941
1123.854373
1028.653495
827.6689055
1118.755294
1199.930486
942.5644715
949.5242725
905.5196711
1167.867294
1142.947607
1092.641182
896.6067546
1308.018627
1531.072485
1528.625621
1780.918752
1847.493231
1797.766454
1559.949411
1325.054552
1543.090037
1311.448281
1426.024893
1613.9436
1678.342006
1372.690256
1263.971602
1451.009154
1646.81176
1443.163913
1561.102274
1938.077132
1698.866282
1205.467388
1424.198399
1581.382485
1683.887263
1738.060073
1476.786403
1615.330133
1653.676476
1368.616295
1203.539251
1069.27256
566.3752325
880.8813385
1149.924975
1041.896847
936.3018489
1175.042802
997.5841609
848.6965561
1204.714312
920.5404094
939.5184969
1346.850937
1497.75977
1547.778975
1622.158637
1907.398863
1923.875281
2631.416448
2082.573843
1847.603067
1875.24362
1888.713613
1493.707277
1360.985405
1614.966587
1583.505631
1504.98457
1534.59357
1626.829838
1231.25517
1393.47785
1237.0732
1034.018558
1247.267515
1198.350324
1448.815065
1308.618464
1243.41553
1238.691124
1101.120584
992.8411656
931.3186951
865.497025
824.3777087
952.4938402
1273.258851
746.9106404
987.8435641
913.0494174
957.2377644
987.9131978
1138.992387
1147.294893
1120.670401
1748.486829
1565.651723
2489.400376
2131.98454
1989.183295
2012.210559
1681.886722
1714.121588
1379.767356
1333.749647
960.9785652
1367.386917
814.0162185
1207.721098
1232.261909
995.5515781
749.2216187
1263.783346
985.6875577
1099.53629
797.531925
832.6088124
1141.067333
1379.99493
1379.157768
1177.993642
990.3103557
919.1278712
1211.167579
842.2844643
1016.010112
1085.412952
1042.681947
1161.199184
797.148852
774.5030253
953.2033392
785.2372108
1115.660646
1141.661521
1448.256502
1495.506311
1861.420577
1810.452374
2211.588428
1715.366289
964.5538584
1008.115366
838.4694743
2054.59766
1445.575684
742.5799679
416.9864382
1685.800866
992.0733619
1013.312565
1153.395934
1017.331173
599.1525732
1102.254913
879.9016636
553.3952282
1660.739119
721.1259449
626.7727079
898.389868
1136.551493
1280.255336
915.7464143
960.3578998
976.9663548
1006.02426
982.2856347
1465.291695
1848.792359
1656.290817
1612.523314
988.7620411
1479.455082
2600.374724
1215.558312
997.0101329
552.2160059
1291.122332
2543.044235
2582.639474
2571.847991
2270.01155
948.4518712
898.1071213
903.309683
1199.191222
1142.054005
1228.100623
961.4716176
678.847371
950.7500621
1100.36127
987.5161645
850.0688907
1115.872576
1162.749074
1393.26605
1646.760909
1736.514512
1096.802092
1122.341445
1135.756898
1126.51641
1142.497656
1136.929904
1118.905282
1096.60088
1572.840819
948.1038105
1001.575122
763.998714
633.7510268
577.8877045
527.7430463
891.7076796
927.3981734
458.5771519
622.4905554
538.138211
911.9894646
1279.256608
1179.408944
1204.282632
1009.917245
1021.704723
1043.441472
1195.68694
966.6999594
1005.954469
1293.664401
1713.548928
1092.398284
1134.994687
1182.759866
1200.083563
1232.846027
1242.112265
1242.116326
1237.932316
1203.806252
1194.340624
1146.778077
1105.477931
1609.833027
551.0929807
635.4622241
291.8841471
354.9601329
647.6390805
476.1002301
604.5231943
607.2999945
818.2438794
580.0433598
2041.688781
1338.130789
1242.296009
926.5762682
1013.985394
1006.912302
1179.328701
945.0024045
1430.996934
1597.218873
1073.496111
1139.519181
1210.197551
1236.573985
1263.429491
1308.625482
1319.790084
1316.297406
1330.034974
1316.769379
1310.596852
1288.525015
1239.068818
1191.361001
1129.892579
1092.20236
804.8380863
775.5395927
545.4232688
800.7656732
943.6361089
1203.392772
522.45021
949.9560525
1042.305879
940.7386167
1715.997378
1239.136537
1313.925735
1742.437786
1108.773696
1051.187082
1259.835318
1352.828362
1662.643336
1106.839705
1171.401194
1219.223698
1269.725764
1321.306416
1354.793395
1397.985426
1400.840398
1413.43673
1421.089399
1413.460964
1404.79571
1372.036055
1306.983156
1277.800595
1230.853927
1182.058382
1113.628406
1239.145609
491.6994319
625.8070492
407.654406
295.6158876
803.2531023
706.3265562
895.3674398
915.5206486
1268.827895
862.8416562
1014.11168
1320.415534
1517.260516
1003.752292
1304.744089
1562.578583
1586.270478
1105.844474
1169.927942
1233.273724
1318.435138
1351.369597
1395.910709
1436.347582
1476.046707
1488.302471
1507.820149
1517.648577
1519.485908
1463.253685
1448.095557
1415.523566
1356.072476
1303.608266
1257.710534
1190.429173
1111.070071
1624.111347
356.6731342
348.1112548
845.6778379
1793.01514
948.189265
482.6784766
500.6644905
569.2270167
2191.313504
1408.947159
863.0420357
960.0197277
1040.153666
1246.873043
973.3047157
1397.13609
1081.426889
1176.956897
1228.631517
1311.986982
1381.727021
1439.221395
1480.760974
1520.770122
1550.765729
1583.312569
1607.298292
1608.241495
1575.289683
1564.216184
1540.785455
1494.735522
1422.496719
1373.65668
1312.753256
1249.403753
1181.157124
1104.585384
149.8923069
359.5465958
1471.397726
510.5229358
604.2071754
565.6741303
1406.764686
1691.540444
1547.676638
1006.592604
1066.58002
1265.936671
1406.707114
1152.934319
1231.389057
1689.991271
1143.213378
1222.811634
1299.446286
1393.113909
1466.017929
1511.928985
1575.496736
1608.11821
1650.706334
1685.313265
1698.080553
1689.712784
1672.439403
1628.261166
1604.346816
1568.397615
1511.319422
1429.929063
1385.792352
1319.668884
1240.516549
1154.737241
869.4425557
1336.299433
1420.669689
488.4645592
295.7937498
462.5276011
950.1641778
270.4863823
791.6505309
2335.497561
872.3435177
1179.39884
1081.769874
1124.020347
1262.196728
1111.441175
1188.722408
1288.339805
1362.438731
1425.234946
1508.922963
1590.883059
1625.896309
1695.626499
1752.543926
1796.28695
1790.587176
1807.487967
1784.40353
1741.230765
1679.986364
1662.100171
1570.321511
1524.044847
1456.193763
1370.270377
1296.615688
1219.952207
1137.977196
997.3503896
336.1492604
537.7122776
529.3864073
781.1349868
821.4443157
284.7777745
947.3412702
2430.364724
1432.736634
1748.443732
1269.779248
1046.966403
1638.159133
1154.66071
1240.670561
1329.758007
1414.246916
1489.505096
1566.282551
1626.993374
1715.364008
1788.741174
1871.651643
1947.335749
1986.039429
1980.673612
1945.049966
1867.421226
1799.384416
1716.928957
1630.854751
1559.835067
1503.596564
1416.117633
1349.248403
1274.841063
1174.583048
135.9723458
919.9414741
407.5675243
652.0917974
1111.789318
238.3978168
418.4862938
1503.788876
1034.252077
891.634011
939.0398284
915.8913973
1409.850775
1088.944799
1181.802238
1271.727739
1364.045252
1447.060179
1525.986333
1605.275614
1691.556944
1794.05571
1916.603349
2049.77795
2179.839868
2220.503092
2229.227788
2167.340468
2041.113949
1906.11776
1772.497898
1676.27814
1602.19346
1547.307292
1464.782519
1370.382654
1311.787807
1214.066102
1107.189664
726.9663196
752.8284501
949.270492
951.1132523
520.4793458
931.0840334
1260.732965
1146.508176