/*--------------------------------*- C++ -*----------------------------------*\
| =========                 |                                                 |
| \\      /  F ield         | OpenFOAM: The Open Source CFD Toolbox           |
|  \\    /   O peration     | Version:  v1706                                 |
|   \\  /    A nd           | Web:      www.OpenFOAM.com                      |
|    \\/     M anipulation  |                                                 |
\*---------------------------------------------------------------------------*/
FoamFile
{
    version     2.0;
    format      ascii;
    class       volScalarField;
    location    "3.989";
    object      Ttra_O2;
}
// * * * * * * * * * * * * * * * * * * * * * * * * * * * * * * * * * * * * * //

dimensions      [0 0 0 1 0 0 0];


internalField   nonuniform List<scalar> 
50792
(
16116.40992
8413.249568
10210.04875
7979.837122
10007.10527
11312.33255
249.1468499
12238.8245
12305.5807
3077.160946
13133.16514
10575.52798
11871.17053
11503.12954
1160.71774
11783.39513
4897.344894
5110.347584
1086.738535
816.6899779
513.2424438
2312.882991
4100.582201
3690.78741
2351.469571
1189.256235
11545.3806
8027.774133
5133.718741
6784.524512
7058.950513
4278.184315
1368.091476
1177.244144
8909.918122
1428.617874
1288.527113
3829.55625
1581.73301
1494.288289
2116.876061
1810.481937
5868.658058
180.8459557
160.3567196
200.9228967
202.7983906
188.8350786
8986.187437
10289.30408
645.3833791
10505.26304
3058.24605
9004.411094
6290.930999
3990.200952
3397.142617
8706.288087
872.516393
6482.200285
2333.82469
7736.211855
8661.462531
10212.87894
10161.15439
8231.388491
7214.329094
1007.777819
7920.852311
2839.898941
3791.797672
9981.475372
8591.838784
13133.25079
8833.471553
4576.616265
8660.681951
8448.26653
8375.100239
10612.8149
11126.89174
7074.068608
5256.25192
1094.986342
49.11129703
46.63564173
97.39700289
96.57061276
201.0255844
211.7005719
8283.415707
6880.460542
171.1196485
11720.49343
2594.647172
3801.626254
6571.698659
4081.988408
5812.668951
1708.029586
3153.191391
12575.63949
9826.770033
4969.675804
6918.139129
9115.555478
6411.388759
8638.7302
2526.949922
836.5440963
4243.21797
6460.002635
5895.968088
1818.457203
3570.566995
10853.39117
6461.710461
4350.777207
9514.744973
7934.159231
4162.66905
3964.174537
7203.954133
3029.743752
9992.267271
7736.631622
5446.225567
78.99050317
176.8507115
152.9253498
160.4135885
166.563408
189.900125
178.1404165
9430.805758
4264.542355
12540.26124
13653.86344
9604.15667
4551.977498
6980.610251
646.6789584
13629.62415
5773.245167
9199.432437
12653.58952
11818.86196
10470.49261
1826.562492
5750.903427
2343.258589
1871.436058
8655.850456
9340.327666
6249.329333
3501.151025
9626.614949
10431.5885
11046.65969
7990.183743
8615.530654
3593.08926
4282.421935
1954.914751
9730.706572
7824.723476
3717.626769
1473.731355
11490.99204
106.5036642
9406.855141
6885.789944
223.6478926
208.5796685
12757.79847
6789.453624
12384.50344
2682.230146
9566.945083
4113.424116
9154.11565
8516.978649
2942.124086
5986.141035
9576.903064
5975.263444
7690.828239
9490.544163
1423.005334
11365.39695
11143.92789
9436.335534
3396.306966
9720.03903
7506.067465
2943.143303
9620.088173
11203.80515
10353.71497
10875.90386
10532.03652
6789.85922
9577.344783
1688.502407
5167.063779
4840.581642
7603.891005
5803.531567
7625.874808
2551.43809
46.9054434
112.5643889
113.581656
135.7005076
11753.53556
153.0396063
2019.012958
13606.8997
10097.05428
2202.741527
6306.452446
10926.73099
1723.181754
9206.518288
6626.292868
9246.841139
4010.017093
1384.55836
7462.787257
8164.728913
3622.935473
10584.26188
6982.539151
9382.121041
4234.523094
6641.493177
6888.646541
9948.395785
10819.74634
5491.287308
7245.620168
8907.816563
10842.39772
9927.875877
9141.099886
5721.881375
1921.128971
5842.844154
8058.484548
9929.804204
11078.84741
4066.389963
218.8502341
1.635765064
10.1772339
91.73411493
168.9583902
3423.253859
12674.45053
2568.253883
7932.746993
8493.947916
4382.14598
3234.600034
10170.34869
2379.120558
3683.162912
1170.971531
4411.441562
2891.820666
6102.845262
8777.680363
9979.734347
5329.821075
6566.615787
4962.577914
6273.029512
7427.776102
10629.75997
9063.349638
7899.367288
8590.816111
10447.21267
9978.026768
12379.97819
1723.140994
2703.833521
685.0611359
5327.842019
4600.465007
4420.804364
6486.485003
8185.958747
3502.112047
30.44711582
164.9993282
225.4399584
275.4858422
229.6476418
6540.392095
3999.602956
6023.323803
562.7332957
8505.973367
6714.062492
301.109091
1002.318492
514.0719882
2786.610542
4227.375301
1421.640062
2346.849444
8725.532403
7441.432278
8107.959631
8103.100028
5850.200612
5526.016304
5320.311583
10120.68761
10684.88242
10205.1001
7390.036465
7504.337184
7349.652508
6712.926182
4344.669339
11375.47316
7097.300484
4967.58649
7666.949517
5886.075862
9887.870806
3948.779533
8580.39758
7757.089121
145.0050212
144.3999405
10574.77188
120.751733
130.6925055
128.0334319
153.1098238
9618.146621
509.5259754
9783.025702
1113.600151
3416.411121
170.2932646
1872.135942
8088.168843
1410.286097
508.3274329
331.3209706
5720.489712
7368.026256
1564.32211
12227.01465
6876.666074
11096.61761
6091.911779
1781.982233
6282.849146
8195.761799
9854.084494
12412.76449
10260.67437
11538.11194
9017.747593
6184.258048
6372.870522
10897.29177
11699.40005
12328.98305
10747.05256
6686.101278
11803.27156
3609.264567
14280.17004
66.09312252
13946.03268
102.1206151
159.4442283
175.6215621
7504.898007
1379.428918
148.2625674
8299.587418
5939.122321
9341.21383
6677.945642
8418.191895
12661.63693
810.8877282
6723.438284
357.2593841
7228.95716
9810.928727
10748.37492
11709.99852
8713.656998
11441.09179
1427.573275
1868.246661
6561.37851
7199.904889
10333.10087
10928.01954
3455.573453
9919.234904
2578.20977
11550.98192
6275.5778
5373.597411
5969.207182
11709.10334
13442.87465
6522.879345
10616.07243
3833.475749
12675.31497
-3.411657023e-11
7499.133168
109.2584335
147.3135862
176.4455641
1454.500488
5419.741905
12506.69945
443.9936931
10610.68313
253.3930768
12356.98227
8757.23517
11334.49342
6033.56254
9906.474909
4058.04112
3463.053846
6259.403828
1885.016865
9424.376246
9828.524153
9347.157021
1613.010018
2575.991297
4514.154707
9414.014038
11284.04995
12694.03468
8974.946617
6163.819143
7681.182161
8822.440738
10608.60127
9595.136246
4384.054217
11271.20904
11660.23554
7814.944739
9440.937842
3069.533876
8904.014708
14274.25917
4470.976249
119.4668616
181.8942947
193.0674425
6847.677897
2674.284477
336.172339
210.8171028
411.576011
8507.556006
4697.704876
11697.17004
7697.023501
237.3424362
1196.888986
7462.40483
8543.980558
5596.041636
6463.264566
4202.223317
5105.641672
6814.789714
2827.335028
10003.15498
7920.430779
10282.08528
8750.674873
11780.07034
12301.94965
10249.59001
10514.68902
7656.648028
6974.046692
9361.611949
8018.592669
7879.983156
7162.204994
9108.600935
3477.427134
4034.122617
1704.256138
12887.3065
229.5341985
241.551296
208.838484
7938.789533
11166.27078
717.566157
4539.438384
8956.180657
2975.152949
983.8476379
3767.234724
2439.018292
8383.012826
1101.574047
2512.200445
5937.914832
9692.081494
10453.57721
8562.073395
8233.763051
10203.94091
5778.367739
6739.056321
1878.830262
6884.623625
7226.337951
7596.745601
6955.00809
6708.489682
7832.119274
9099.406984
7613.858192
7160.442874
7945.741045
10008.1995
10287.42757
7429.09736
11410.11919
6759.14136
5762.764931
2314.461097
11989.39956
283.147956
303.3051517
293.4271551
281.9539938
12741.03081
11090.84823
10844.15415
285.8523562
7679.999288
12686.25164
252.2044858
9103.509803
2749.603648
10207.56539
2064.202852
5223.517105
11484.82089
7144.284382
1519.608757
8155.616491
10580.48645
9178.219679
1804.299053
9183.976187
8146.109254
8063.121794
9721.941472
8569.49059
8094.434572
10600.18887
11095.75444
3910.055817
11007.58072
12191.60494
11967.4836
9314.72507
10310.54601
9316.826037
7898.508866
3790.68921
4271.871719
141.4152804
144.4375393
194.5473184
177.8920168
561.1974486
7535.015183
11495.94053
147.8416257
4770.933689
8810.849059
6341.271949
561.4742895
8104.867541
3495.036766
8788.96392
2679.802659
7329.717678
11904.68818
8448.862111
1514.987399
9453.860066
11343.69273
11077.81062
10867.0648
12819.3553
9252.744231
8755.419895
10314.1915
9642.295203
5465.623416
7536.715164
11884.13483
10806.41165
11104.30149
8400.499559
11349.85307
11593.70197
11208.13612
11700.72069
7251.934659
2392.985366
4969.602598
112.7420082
139.7361237
138.1157575
3745.859472
5087.109141
5095.18275
4669.368456
4085.059799
7922.379107
6847.969446
4236.98277
678.1465559
10598.83124
7334.265728
10390.31512
3245.714145
11326.61352
7427.024748
11138.08674
4646.403275
10422.03859
9640.34762
10887.82947
8221.166416
8804.122953
9565.684493
8801.075432
8426.743218
9736.842483
5909.110609
7146.415971
8225.033855
11979.58577
3038.370502
6346.252796
9562.506007
3542.606021
11074.33778
8828.499573
8328.814044
4951.945051
3489.530124
75.35379828
116.1645722
120.4142094
129.206411
145.6561328
5838.234668
814.9305206
6126.690092
11839.67756
1351.077044
1477.67618
2364.580414
9376.24295
11686.66706
9922.61244
10452.59652
9386.071102
11647.78921
10087.24487
2508.124392
8841.914927
7168.551201
10184.73185
9216.609181
4863.058484
8652.086882
7630.697122
9324.627126
6247.380885
5277.515135
6860.140122
9670.07315
9311.329451
2583.731557
8862.003196
5597.259014
5961.341075
8994.646031
10521.23444
9827.921377
3286.37015
4335.754054
130.7517373
199.7651301
171.7140586
159.3855257
6607.50235
165.6613161
3139.663212
10990.88011
1196.376942
5140.234791
5292.531355
10174.56419
6491.300452
678.9132596
10878.77954
8092.773781
11289.39308
11417.35718
6323.778354
4132.55229
9207.659764
9806.724709
11087.91068
10434.02754
8043.072543
10984.46901
7071.809486
10519.4199
8987.68678
11104.36033
8788.031281
2450.371109
1326.306538
5154.819675
9672.613907
10428.41047
2120.21708
3276.592025
11618.80711
9292.674629
678.8087307
11365.26043
81.26491372
109.0016965
5685.93346
141.8374532
8770.619798
12822.52105
3128.111824
760.5429943
4808.166657
7356.68218
6088.648265
10977.47605
11629.88286
6158.617856
4379.252022
10766.65273
12016.8749
9869.436171
8509.226014
7909.429277
6728.343593
10548.75111
12448.5661
11741.85196
1585.986966
7284.53454
9217.585226
8304.131375
10050.70375
10636.56343
12127.47372
9226.358796
7310.075336
8625.145479
8140.842651
10128.70458
7782.882098
4025.227327
10032.6544
7859.851145
1647.467732
9429.724962
163.3952396
182.8607197
10772.27922
6962.386522
11892.99453
8554.610678
195.7631908
483.5863401
10469.28581
7481.685214
4304.139738
8235.000255
7932.163053
6379.669078
6938.420617
4657.541374
9700.771096
7986.801483
9483.278675
8200.501242
6697.557163
10851.41221
10565.94544
7122.694155
3370.79019
5144.019824
10011.44536
9890.346019
10179.71653
10654.76307
10385.99028
10082.2214
10603.44228
7384.331073
3285.839763
8468.550909
9294.353068
6270.88606
3814.399374
6971.483773
3148.331194
4696.422478
199.3602277
9300.627945
213.2578351
10974.29626
10719.28752
2394.87794
8367.894611
6890.431217
206.1829409
197.332458
4504.46769
3360.033594
1584.893084
2134.906482
10742.67698
2342.795081
5841.772425
8648.773689
9659.916685
7444.711619
9207.477276
11329.47288
4066.565371
10438.59424
6833.638007
8463.509742
6154.691932
9959.973445
10185.83121
10620.66965
7008.66807
7699.624315
8782.049999
7613.976644
8654.904731
3196.199469
6939.102348
2101.457574
3416.950828
10763.02906
6807.267749
15951.69451
179.9798225
7163.647567
5798.408196
11134.99602
13643.69176
15516.80688
3177.632142
9251.802292
9930.248934
7575.807868
204.2331473
1028.568602
635.2816336
9107.589624
4660.564567
8675.899
12157.09813
7081.386391
10882.29807
5521.061795
6294.521291
8692.05695
9407.088194
3562.262054
7742.610116
6772.400094
10354.12364
10491.81884
6667.930459
8873.847039
10400.65275
10785.11038
10413.5525
9021.131848
11260.23017
10100.31097
10406.77325
10310.88197
8898.843774
10222.52831
3600.771477
2.384013805e-12
56.53725065
250.5025641
229.8966252
14045.34915
11719.24064
7122.981695
13545.12075
5011.646334
4329.538256
13709.19606
2023.794364
6850.753485
7166.706348
10662.12889
3537.554103
1034.02616
9745.145373
11342.89484
1369.741797
2297.614613
7041.854146
9288.408577
10015.47518
8100.57097
7675.248775
9270.923366
8860.219137
2955.447089
3443.34201
9965.629726
10296.86486
11431.21916
10115.69926
12423.92536
4440.931642
10584.26449
8451.907838
10488.07902
2712.857201
7426.601531
4736.639583
5356.918126
280.7007006
11090.36408
14387.10757
2172.655059
176.927747
177.5712821
3508.735012
14874.52019
9321.578055
2780.393197
9913.640766
4429.06861
7339.912319
11923.22457
476.4888651
1221.52729
11806.99435
2361.726187
4813.983879
2633.841318
4909.337952
5904.580206
1308.404802
9254.487089
11427.39437
12361.53145
8413.27598
4635.04755
7626.236126
3457.978788
12291.20324
11398.73023
11455.53736
6901.075861
2847.101833
9351.452601
9690.424941
10945.72259
8214.805813
9595.715095
3580.308272
160.4888862
8503.799461
13079.80242
240.4926417
224.41545
182.9044396
207.907929
7953.531074
10182.82332
5853.228062
12478.62757
4390.689126
10043.57308
12049.93393
8128.453649
2324.711042
10749.25193
8230.318122
6287.514974
4213.473945
3558.207515
8079.533297
8018.896708
2493.224962
8118.782769
10029.07669
10154.74665
8187.789947
12543.38303
4832.227282
12718.57191
10853.19916
3967.617544
10000.58281
12639.55161
11158.98364
7913.074157
8979.971203
8617.561615
10168.46766
9942.265005
4934.512341
505.8771124
14138.31484
215.0584102
223.4166611
213.1964037
202.4190656
12290.43685
201.6838398
12521.41032
2628.976767
185.1862919
10366.28422
11388.28912
10717.1145
11818.21962
9302.183182
11351.31221
4593.642645
3535.894585
2247.204653
9214.531476
3661.459711
11093.27139
5982.229995
4371.648454
9351.355146
11066.15671
11972.01648
7300.580071
8509.329316
11271.11035
6756.626148
7833.861102
8152.859378
11531.61053
12077.02462
3561.460453
7988.027972
8956.906053
10679.95155
10427.10948
3963.384373
4055.479995
94.52069614
103.9532011
185.0662173
216.3339758
2337.577285
1091.825101
155.2407265
171.0785031
1545.669964
9171.104142
5021.545005
9490.715623
10001.30062
8809.239186
3630.23346
7093.372947
8774.19001
8508.779185
11442.33084
11440.09203
3400.209514
4184.88228
1623.051818
2103.661747
10853.3638
11623.64208
7326.038176
4606.696867
10447.81061
10443.91274
9130.305748
10901.95273
8978.666057
10183.63844
10459.45686
8033.483667
12285.3825
2614.003375
6199.626356
5310.562579
2886.845756
4030.081163
165.5047535
283.0346599
223.3046862
231.3592561
601.6910191
265.3677979
186.8957775
234.4056393
224.8536908
1262.383259
2760.917299
6797.969326
9375.737155
4025.519431
3914.929978
2629.991761
4553.138448
5987.333809
6699.349412
10807.00376
8080.701686
10375.66599
2167.700488
6358.18278
7573.100907
10564.51122
10208.11908
10986.2318
10308.07279
8117.045754
8385.956769
3158.812653
11887.34568
6854.907744
11347.53726
9621.538788
4014.726842
8483.848363
10143.09648
3963.923061
3043.194986
1855.453769
12578.77995
195.228562
276.6905378
310.2174583
169.794988
511.8723562
6047.25669
9733.660487
6759.608128
960.6279331
2259.888159
12129.82141
6961.846011
3799.306183
10873.01138
8100.96882
3596.424267
11621.08321
14036.1238
12227.14445
9396.044466
8451.581206
12002.16395
11909.69162
10654.92303
11243.58957
12216.27272
10398.75809
9427.310998
7737.439386
12290.73408
6986.497979
7843.865315
2681.352696
8094.899608
5518.174302
4717.82114
7348.057989
11052.53882
7713.416822
1839.747063
8030.354554
12511.16523
12929.00932
9749.472728
150.3553596
3988.615454
10734.85074
12230.11797
10815.67298
4991.391396
229.3789059
5781.966696
11546.20575
5741.847181
5487.311507
2822.284233
10001.83024
7287.838652
11766.5738
7858.218726
1733.191891
7176.797204
7220.400547
10434.461
11232.82048
10925.26476
9607.553821
5855.287168
7144.430428
4922.228142
6140.430723
5350.382363
10417.29465
9065.343371
8572.377072
1316.659016
3997.913855
5228.058235
7559.40276
10777.51034
2077.080546
4039.125339
1646.246983
8461.759938
72.87295203
89.35665616
100.7395484
6546.316915
13361.95933
13288.09061
12559.75202
3056.480786
3966.127217
6072.964238
3759.293926
6108.630796
8837.314511
8647.16005
9388.99158
2135.247754
1549.34794
2378.578649
4407.028298
9802.154952
6813.929278
7450.392296
12170.93638
11134.32924
12401.92408
7177.566901
7529.862498
6364.638073
11761.16212
4048.428987
1488.270678
10294.82613
10238.02142
2432.200843
8549.885379
9686.513506
11247.0086
9501.967474
6899.946755
2416.135943
5417.410002
13732.64642
3995.403133
214.5446748
238.8562437
9764.156956
3118.418842
7308.382299
4442.320882
12032.79091
11847.80497
11942.40807
333.5976017
512.5188117
12077.04183
13472.41273
752.9211347
2202.390357
5524.333555
3787.884137
9401.347493
8472.949786
12140.35156
12616.83107
10555.57653
11802.71156
10077.27224
11489.74974
5504.814779
8500.957115
8425.434412
6773.578823
7130.312472
11171.43046
2643.684082
8111.589514
8994.683421
10188.33042
10510.22529
10709.49569
7870.485882
9992.839293
13414.73434
117.4232766
12766.85229
212.5881973
221.6410922
13197.69111
206.1126903
319.081099
4921.800617
12625.67372
10700.48734
10273.79153
6211.177714
5648.991734
7721.761236
2143.071485
690.8496868
8053.30144
7781.772066
8010.902105
8043.433562
8237.872764
12592.50479
10682.89603
9176.445819
985.2116947
634.2640023
7969.448984
11541.44535
7217.092876
6128.40439
10769.07202
12481.15446
7909.501178
9252.987544
9182.277743
10033.63748
11977.56239
9308.726138
5891.788605
8471.253393
3350.422965
2500.357553
98.33518767
7459.711325
166.5691352
10083.43808
158.1593892
171.837685
9746.555797
11893.74168
12996.62804
7298.905399
6692.688425
6451.226608
7175.01082
5617.871568
4085.425445
1573.262526
11906.93465
7619.96908
8166.317166
3533.482204
3092.385587
7844.956906
6275.992881
3257.184146
8993.678525
4885.858286
6014.80215
10790.4878
6487.645682
7302.354584
5691.954682
10266.01603
7514.999842
8126.883586
7495.829929
8059.201983
10563.31444
6615.893722
8253.497836
5818.391884
3144.298203
11453.20857
177.559975
12750.51318
289.4691452
10048.3028
227.8770524
3125.345903
6513.392643
8538.998177
13297.63838
7957.73892
6300.644961
9061.641345
12153.34802
10447.50749
11531.65378
10640.34418
12717.3644
10864.68945
3988.867249
1897.612276
4426.208658
9850.64958
4811.351499
4989.541838
9168.185479
6731.206786
4540.258884
3722.415106
10730.54735
7424.348738
11306.47099
10064.81581
9071.471588
2392.796702
2263.643441
9473.560523
10612.10499
8768.811931
5270.7261
9219.373222
3443.987308
7664.020019
65.35814302
12155.21587
12019.95478
158.0946218
162.7046991
176.7388075
871.036297
8431.991305
12773.28471
10845.28303
12596.96388
8366.155476
1047.828662
607.2775796
2662.692634
2234.45793
9761.462285
1420.64872
7225.715898
8018.201212
7342.843304
5079.80405
4261.653538
3554.87931
2974.164883
9307.273596
3071.584951
7970.393964
10899.00754
8128.068504
9958.921233
11281.79231
11442.891
8477.265197
3634.622009
6178.806153
8448.37
10741.98544
7820.5513
9375.345422
6332.025492
939.0909815
21.14849185
71.67249559
123.4138078
145.5256231
578.6031044
2063.81646
914.6686303
11644.88761
1754.943548
10454.7316
13028.45554
7688.889619
4014.398164
3037.056691
1825.319098
5684.636376
10954.12837
11299.44052
4620.988764
1827.549793
2887.032305
829.0859322
8493.020504
9470.446445
3021.414308
3697.268023
9732.578146
8772.522223
10549.253
4481.765081
10368.05272
8646.597478
2740.264848
10992.40237
11169.40146
9546.901836
9706.254402
10065.55196
9003.627849
8632.091616
3552.919653
3031.445234
152.811217
184.2009389
206.676657
211.9382868
10804.50641
195.6372814
822.2738549
11772.11686
10584.88092
11300.61734
12116.46425
1636.246362
9344.923203
5953.024738
1323.506023
11312.84114
1461.08165
11141.58934
9449.818664
7804.200996
11345.6849
8132.365379
10818.63339
6280.118491
8146.346629
12702.01199
7998.408611
2796.756191
8557.190227
6888.411193
8142.937006
6364.030409
11197.186
11173.08653
10496.42839
6264.774062
4392.47024
8970.724622
5170.752608
4291.276761
1949.621079
5990.964143
2.377821562e-11
109.9107222
105.6415272
233.4758648
235.0424744
11886.87912
190.6631627
10588.38216
10513.92929
10252.15497
4078.6521
4066.524098
2532.270782
5819.716674
10458.6375
4066.927384
5786.89816
6952.679987
3372.601348
9780.689152
868.2896212
251.3621375
9603.65129
10209.4592
6894.395405
12739.42817
5965.858653
4864.168732
7843.787738
8143.224235
12123.13034
11439.9536
11656.68316
10220.85757
12024.40063
7231.018343
6751.141779
6168.879083
7598.216038
4715.58769
6172.041608
19903.13898
270.7758205
274.6971071
267.7849686
2195.858562
515.7653119
11840.61805
6764.072641
10669.82923
3049.141323
400.4004739
5026.002104
1159.829094
9371.766525
10344.61539
7815.869819
8935.872253
4792.172387
10281.26755
3943.188471
10127.66458
5203.980948
1746.366574
1480.374848
11111.02637
6951.877285
2861.401141
4819.050878
4633.443408
3934.602895
10635.58812
8006.579253
9119.823144
7750.51937
9048.871206
11259.46695
4530.05919
11068.97924
7881.943758
6648.264661
3752.85071
5417.332386
10651.75849
186.532815
169.2082276
190.4993359
198.5631635
7988.385668
2244.07166
464.3698027
433.6093892
250.400845
1044.986312
2098.410584
9727.658466
8566.771645
11222.11415
3858.159451
9781.516427
4943.163144
8833.98998
2371.116375
5933.157372
6940.002618
3634.023473
8865.185207
10274.43705
11914.0496
10828.35883
9849.844148
4113.933654
3143.309356
6674.42516
8950.665165
1132.52716
823.4358979
11867.64731
9068.067204
10729.73513
12112.64225
6408.603787
8896.066851
3966.758617
296.2878877
3.269504647e-12
104.0145347
104.5237964
66.45822213
16196.63882
6985.59543
12766.10073
11364.00595
169.4680991
9816.74945
12370.9227
3453.321855
11387.86483
5859.998461
397.8465369
1934.842433
968.6662179
222.8892706
1920.608284
1554.611598
4589.2049
4346.503143
11511.95829
8247.288184
9837.544184
10258.51503
846.0481358
222.4587137
761.3288016
3338.545333
327.9314378
2234.493145
2084.333337
1099.863313
4027.729627
2643.158127
8147.120553
10982.50363
1203.499315
2038.325055
2192.547769
2216.695786
788.0662853
891.0832623
407.6856725
2388.037582
6128.750905
11689.24802
15216.63624
13971.75729
13210.64203
9090.091016
12984.83507
13956.52223
10041.71635
10615.65108
14071.975
14327.69999
12702.74021
10908.57433
10298.5306
10442.23491
10685.50386
4781.659636
8970.240964
9009.812315
8272.20793
10796.71079
10908.07001
11510.80929
5733.486001
2409.32833
5244.383714
5474.794331
7673.058062
6005.984667
6822.620807
4819.785724
5068.397697
6380.815301
3482.860166
5844.950461
3143.206353
2950.722964
4531.397943
7701.858536
5837.536471
10002.11019
10174.05772
7656.766637
9584.677474
6425.998014
8185.23513
5573.147156
11564.35519
10811.26617
8282.409254
12227.65959
13557.82957
11145.16025
11955.29354
12367.08768
11068.03995
9689.513466
10130.91609
10332.14439
9530.273306
11164.84415
10375.3481
10015.86604
10728.53216
10593.84851
10833.61359
10918.01861
10879.24862
7695.356132
8361.814694
9455.261069
6834.731471
9760.122243
6558.103316
6969.596749
7260.527905
11125.98539
8374.733823
7879.86624
410.9665065
5451.256981
8725.26675
12247.66812
13279.15799
13606.08216
6275.901752
9750.684732
8340.333969
7453.392014
8581.87814
7937.561876
6748.311462
12060.0733
13248.31947
13068.06223
10490.3124
9122.026753
11134.24639
12628.80515
12276.61599
11939.81228
12062.24615
11162.9952
11104.78907
11716.43816
10479.10655
11623.08531
10927.83261
10077.77594
10666.11413
7562.926451
7891.836207
10433.75106
11188.07582
12415.4484
11233.05134
10171.33799
8299.253266
9385.139435
8764.848047
7747.709247
2609.262497
5910.604324
8230.840687
9642.432714
9669.302215
15760.88039
10574.7618
8847.326345
7117.758456
9224.486953
11328.16392
9436.313817
11285.70549
10416.50178
11119.18738
10349.61473
8523.794564
9164.964408
10053.00385
10746.90382
10452.68351
9924.461907
10168.55281
9162.722118
8875.940822
10642.09003
8294.325396
9539.136565
10656.84765
9646.713916
10493.79882
10016.54195
10231.97838
8006.711197
7519.495554
8774.188764
8792.57861
9190.448026
5710.314075
10587.63492
10942.71856
4304.259745
3906.349199
2919.851451
4037.863969
5331.408073
6283.4526
6170.20309
4958.534841
7683.732368
6573.01533
5870.109193
6545.205484
8150.547237
10347.80359
7661.59327
11621.38693
7991.2028
8109.318079
8421.350244
9044.238503
8877.030952
9710.905126
9196.811537
10283.42098
10049.19741
8700.397003
10738.62413
10978.64086
11156.92794
11219.95507
10297.79756
11287.93609
10341.7751
4594.582766
9618.952623
6300.675379
7515.974504
10743.43806
10812.49248
10305.45121
11531.17725
10680.88645
5162.504766
1244.770506
3156.848743
5141.787499
4808.302722
5778.12824
8068.27493
4489.23725
11107.92751
6942.561914
9926.980506
9869.706908
6685.681004
6832.200011
7531.565324
6893.749906
6695.558608
5535.328239
4734.307848
5891.18844
5798.621455
8554.127994
8517.686623
9423.022758
7558.870972
6706.305883
9821.876698
9232.161441
8574.620622
10757.74163
11628.83775
12396.60551
8077.454589
11171.3167
11159.69059
8161.498177
7763.846818
10656.27145
6447.066045
6081.836259
4348.434514
6966.33681
8122.758702
2554.608696
3113.28453
4005.600401
6208.406139
5478.2426
5789.966882
4456.626957
10393.87054
6789.986455
9305.276135
9062.541816
9768.10113
7907.310803
7365.088753
6875.895511
7315.306376
3316.181014
7765.78688
9812.546469
9364.859281
10907.10495
5864.442738
11351.07813
10737.25908
12310.53695
11962.7618
9472.353701
10881.93671
10279.36344
11061.43873
9869.523641
10069.81536
7285.726983
8614.281792
3708.693671
4672.652434
5372.621292
5426.250393
6879.697903
9529.209674
7667.203551
6622.307089
6079.345863
5584.45383
6564.487543
6478.837736
5442.917491
4440.458198
2768.23874
6947.962611
2778.463729
3915.448402
9609.753955
10749.38895
9204.507987
11312.01724
2691.366097
611.8720964
4465.992141
4551.983739
11474.99947
11475.00719
10472.20506
3711.651017
1128.236196
6581.200936
3523.609349
4907.040514
8050.612628
8576.07935
6399.895523
4492.748138
5854.243114
6873.434007
5485.28019
4720.952769
3095.752805
1105.675141
1152.85269
1187.680646
1181.471327
1181.078629
1179.981964
1154.056952
1117.476298
6035.953231
6541.65087
10135.92318
10831.36917
13701.62431
1616.742439
866.2269825
10377.57064
7804.351054
8391.428273
4780.050911
2909.789797
3680.669322
516.4298394
2465.882036
3910.507906
5188.191996
6297.613389
6838.63987
7640.548082
6494.005814
5582.421631
4870.49786
4050.638762
1132.166279
1190.66325
1256.868945
1287.700498
1317.938421
1316.520878
1311.298837
1316.757181
1306.511598
1250.167079
1205.248969
1145.007967
0
7491.444625
9225.416897
6700.468162
10527.5361
11365.56551
11968.06078
9718.491986
6420.034554
7477.481034
2970.930939
1034.801356
4143.893024
7139.633357
5628.796633
6673.024636
4604.286781
3061.175501
3816.468752
3587.354783
2765.283014
1105.691963
1183.028235
1274.252254
1331.118126
1376.042154
1431.414747
1469.519409
1453.723237
1467.477798
1461.066893
1436.88233
1415.800389
1347.901183
1275.791033
1206.908351
1153.04469
11170.13797
175.2682145
189.7792407
182.7005698
241.8729171
225.9578707
4342.283395
9744.638663
3639.383485
2831.495452
4948.508478
5258.695235
5328.571857
4422.582364
5390.924049
5653.462235
3146.026066
3553.998679
3055.029752
1139.161515
1224.514864
1316.184993
1411.30442
1466.468231
1499.520059
1594.420556
1617.052153
1616.123623
1602.72863
1602.341353
1589.117439
1581.77446
1504.992446
1386.206039
1320.369234
1235.214224
1163.488451
0
0
244.2442327
226.8101551
8192.814999
10928.74662
1243.724329
7490.451017
3579.912285
2970.062201
2791.092099
4140.849349
3779.98806
7269.838681
4533.745974
3421.646613
3296.6279
3001.816877
1147.193077
1266.957371
1328.707988
1407.168868
1523.070829
1580.781749
1626.022793
1724.570157
1722.269384
1715.726515
1705.794092
1730.413603
1716.382455
1681.860675
1623.332539
1516.927253
1454.711184
1342.36267
1283.587167
1179.778783
44.89476639
46.10840429
68.63008864
107.0321472
10415.73073
9633.02431
10327.22855
10691.1036
3861.325275
4320.558163
5826.5022
6664.868852
10912.46614
8769.58375
8346.375788
5327.570248
4164.018635
1135.209711
1231.410333
1344.990119
1456.677155
1536.432067
1628.464206
1704.388093
1726.688109
1771.469844
1775.057451
1801.002797
1821.948728
1808.741137
1771.00221
1786.66765
1725.785807
1649.557115
1542.482671
1456.939792
1347.859612
1262.927591
1172.143111
125.7719352
224.3791929
250.7255305
9708.702012
10550.82324
696.0315464
188.3154685
5791.538867
2636.512012
5377.893875
6785.742993
6439.731047
6707.892407
5723.533039
4790.675218
3034.302043
1187.211396
1306.15733
1432.367312
1531.072253
1660.04741
1750.964857
1778.098011
1820.250094
1825.210877
1857.046968
1857.922771
1863.392693
1846.439374
1822.064248
1830.842876
1788.863124
1724.442146
1665.549379
1569.959779
1461.671632
1375.077217
1226.145267
0
2456.146643
10950.8823
141.3745021
232.8152488
518.0429684
9944.407934
2462.162032
532.339857
1573.73053
2837.276849
3730.231891
4075.20944
4324.791451
2856.378752
1129.778069
1257.183974
1386.85257
1530.266391
1641.357471
1728.142703
1791.411843
1823.41742
1876.604004
1892.014907
1959.424797
1972.151752
1995.187627
1976.36978
1920.428475
1837.285493
1851.014927
1821.421224
1764.429899
1686.641596
1567.681014
1450.659951
1305.060994
1165.309634
165.2437164
7715.477031
167.0807062
233.2036535
8731.393528
232.1454549
282.3394614
4186.7479
1620.584269
2176.834897
3090.731152
3064.879865
2961.968636
2635.138357
1168.371133
1322.040142
1463.136032
1610.744971
1691.887807
1771.166079
1808.49065
1856.742083
1964.232511
2072.001336
2171.2507
2235.495492
2220.892344
2170.16185
2059.008412
1960.536047
1884.701853
1848.710688
1793.40626
1737.368242
1628.186731
1509.080992
1368.997361
1250.422653
78.53154665
103.9057001
147.3731556
173.3183934
4189.526942
10430.96475
174.9273785
4066.491013
4745.193073
3594.595936
6261.074641
3949.23116
2943.342774
1107.797075
1224.423248
1351.771993
1523.914475
1679.507856
1731.340046
1814.353943
1851.596846
1956.68704
2127.603744
2325.49268
2497.495176
2589.660401
2560.670597
2493.074558
2330.668491
2127.770554
1959.306804
1881.99434
1838.210302
1776.016425
1693.770409
1583.24473
1433.356665
1311.890459
1162.282135
9014.9322
10602.44691
193.1098643
166.6410629
149.9122057
148.6933962
3436.000828
5983.896553
4328.925063
6109.339711
4480.949981