/*--------------------------------*- C++ -*----------------------------------*\
| =========                 |                                                 |
| \\      /  F ield         | OpenFOAM: The Open Source CFD Toolbox           |
|  \\    /   O peration     | Version:  v1706                                 |
|   \\  /    A nd           | Web:      www.OpenFOAM.com                      |
|    \\/     M anipulation  |                                                 |
\*---------------------------------------------------------------------------*/
FoamFile
{
    version     2.0;
    format      ascii;
    class       volScalarField;
    location    "3.989";
    object      Tvib_mixture;
}
// * * * * * * * * * * * * * * * * * * * * * * * * * * * * * * * * * * * * * //

dimensions      [0 0 0 1 0 0 0];


internalField   nonuniform List<scalar> 
50792
(
1084.906671
1215.831246
1834.037618
0
0
0
2328.559575
0
0
0
1609.080787
1144.847035
0
743.9292979
0
666.8988823
962.7905245
693.3154965
727.2637506
709.8684039
694.8816224
700.1614859
680.0055655
680.4077011
686.9520471
689.1561411
572.7790922
1277.549988
952.673992
868.5241324
793.4546538
671.2785942
686.17383
718.3484655
774.318811
700.6737567
934.0914333
469.5127611
984.9780357
674.6033647
651.1867489
624.206598
2960.085871
0
0
0
0
0
1299.292436
730.1412274
865.798145
1162.812511
887.6810355
716.5686975
723.3305158
994.0170412
900.6355069
524.5791608
899.3576404
0
0
0
0
0
1338.072228
0
777.855812
681.8211378
684.5572241
676.704223
506.7778159
916.1461154
0
946.7179013
722.352078
738.1336922
0
1069.059583
619.2623913
768.1843654
1280.566539
1041.372619
599.6320998
0
0
0
0
0
0
0
0
0
0
858.2616284
1002.479311
743.1254153
733.0666184
704.5445325
968.0912553
0
854.2656489
551.6432301
755.8984487
655.2699808
745.7642954
1519.191786
0
0
0
0
0
946.2593884
0
914.3804509
0
1053.793702
595.9110263
0
1123.351697
800.5996579
726.4627801
440.8371816
954.8169668
504.6073323
462.605741
0
0
0
0
1041.971823
1685.043179
0
0
0
675.1339486
492.4213571
1081.226824
1166.336833
1302.712513
0
1112.049664
716.8145513
763.797846
748.4767375
0
0
0
0
0
0
0
0
1077.757704
0
0
1286.053252
944.1436379
939.6587999
0
1044.582249
1121.673553
714.3193669
768.8930649
773.9773514
1105.838006
1015.57443
888.920117
740.9213152
0
0
0
0
0
0
2922.173389
571.6567082
720.718375
0
0
0
0
0
544.021689
784.518528
550.3922454
0
0
1032.37125
0
696.4811767
0
714.886636
475.5371305
0
0
0
923.0957813
1130.240965
547.9172806
581.8045563
811.1813364
995.5582407
604.3266657
669.7102044
612.4726389
1053.249972
1051.188204
0
0
443.4314068
0
0
0
0
0
0
0
807.3786688
0
0
0
1011.186603
0
686.1870167
806.9818132
0
719.503799
809.5383839
0
0
0
784.6804497
687.6024719
503.8807528
0
0
0
0
651.516892
653.4311261
496.439756
608.0942543
1165.002318
0
0
0
764.1448925
1083.287322
0
0
868.3899779
747.8701711
0
0
0
0
0
0
1541.583719
775.1585264
0
0
0
0
0
970.0413366
0
0
0
421.0711133
575.2206368
0
0
578.4876524
781.0895777
748.5564746
923.6464358
878.1374135
0
881.1173445
767.1579975
654.1297056
522.6606299
0
0
0
0
0
824.3167254
1027.005093
0
0
0
0
0
0
0
0
0
0
1056.727509
567.4135127
0
758.4011932
765.0206224
745.0546581
713.4447313
698.18977
467.3545564
0
0
0
915.6389524
0
0
609.1437638
673.6306596
0
563.6425079
1466.495958
493.7467106
636.0424363
0
569.6968846
0
0
0
410.5770167
0
376.0666539
899.0442857
1118.562319
535.4033193
607.4601234
0
0
2260.930611
0
0
0
0
0
0
0
0
0
0
0
0
0
619.607823
694.416794
686.6394333
683.9704961
642.9589511
0
0
0
0
603.0958089
671.2151826
665.6177156
697.7458063
678.2711483
685.080585
734.5128477
930.1413677
811.0895081
0
751.8196096
0
1115.874228
1158.054793
839.1403029
0
684.267015
891.7742636
484.5008612
0
0
0
0
0
0
0
0
0
0
1000.973521
1053.091546
0
0
0
1274.435654
0
0
0
0
0
0
569.2270473
791.5418799
0
0
867.0756093
867.7821844
820.0741464
1007.5395
1084.863635
0
0
1745.885351
0
0
0
1204.975696
735.3106145
851.9662092
728.9342585
640.2058419
0
0
0
0
0
0
0
0
0
1086.383894
933.4564014
1237.856934
967.9116936
1056.901247
0
0
0
0
0
0
0
0
0
0
0
0
0
0
488.6360033
0
1034.069205
729.5827972
464.7279445
845.6843039
1843.475479
0
0
915.7656194
652.2938595
590.6300802
1055.956833
0
1047.260032
0
0
0
0
0
0
0
1091.95758
601.2427127
0
1125.731655
1219.96838
0
0
0
0
0
0
0
0
0
0
0
0
0
0
0
643.9983665
0
0
796.3997962
543.3540877
0
406.9834896
667.2945942
635.9623352
882.188499
858.5225834
1147.975849
685.7770487
0
0
0
0
0
0
0
0
0
0
0
0
0
0
0
0
0
0
0
1567.408106
0
0
0
0
0
980.6696784
534.0333728
0
0
0
0
383.6386949
512.1030523
369.6132955
595.9811759
576.1491456
0
1252.195141
726.3867296
738.5241917
476.5724063
0
0
2095.933282
0
0
0
0
0
0
913.9006455
522.2781623
0
0
0
0
0
0
0
0
0
1786.160655
0
0
1455.938614
0
0
866.0292095
716.5276198
995.6804987
940.4779348
668.970567
648.7210932
788.0220161
0
976.5708827
666.5897915
0
0
998.6783728
0
0
0
0
0
1829.725965
0
0
0
0
0
0
1221.594874
0
0
0
0
0
0
0
0
0
1552.186423
1541.691545
1018.621511
618.5767368
1658.536092
1422.26481
0
639.9056325
839.6648799
1032.783046
974.3170786
0
628.5436353
897.4668004
487.5051899
1014.680571
1493.335823
834.6411142
1039.34544
996.6769154
624.4166479
0
0
0
0
979.5187595
0
0
0
0
0
0
0
0
950.4225656
707.9430683
0
0
0
0
0
0
1784.588551
767.0484465
903.1943423
0
0
912.5957006
863.8712341
492.1523355
0
0
0
848.4887872
754.0294849
661.9648219
866.8398955
853.0004138
857.9337479
1255.896738
626.1661393
1098.624853
732.6313006
508.1165408
526.492058
739.8927061
0
2171.446725
0
0
0
0
0
0
0
875.5336548
1160.462106
0
0
0
0
1052.433444
964.7657721
0
0
1077.958152
521.5568513
935.1573861
0
0
0
836.1200728
891.4605689
961.9788073
611.5441235
870.5220415
511.0398658
0
582.89041
623.8405371
581.6602559
846.7797368
1364.328627
905.5773621
1127.978014
548.7026089
886.5197363
775.336807
0
1181.03307
0
0
0
0
0
0
0
1315.034444
0
1000.661199
0
0
0
0
955.4854794
948.3373214
589.1036531
1121.123046
1026.675176
1094.085553
766.2138492
727.2840936
671.232121
879.956106
920.7945993
738.0077398
0
518.7224342
0
0
778.5345692
0
0
1036.082085
1066.679698
1599.947544
0
709.2497945
922.1661353
1359.994148
0
0
0
0
0
0
0
0
0
0
0
1177.534576
0
0
0
1078.427099
0
1056.055172
1040.0849
0
1079.335412
0
0
743.4821563
0
0
1109.865859
698.722785
768.1660032
858.3446226
662.116683
0
747.1821756
727.5853481
750.0952878
685.1286722
1036.644438
1328.469186
1531.585098
608.007441
802.2248399
1014.669982
0
2472.930932
0
0
0
0
0
0
0
0
0
1053.818928
786.1679876
0
0
0
0
975.2827561
1184.197169
0
492.5922964
390.2612171
876.0763969
592.0927789
0
0
1069.304358
1119.996824
1076.302478
760.273641
0
0
0
752.8387198
614.7697438
924.6634577
920.5561822
1261.076739
1400.107634
1437.114103
743.0751638
629.2535969
729.3406935
1667.363815
0
0
0
0
0
0
0
0
0
0
1074.004519
1250.596343
0
0
548.4028668
954.5738646
0
0
723.2958848
659.3342282
685.3029703
1424.703207
971.1976459
1445.25991
0
765.7417156
727.3071068
753.2590156
887.5169338
390.4177354
0
0
1017.619085
745.3025195
1028.973279
0
892.8544064
874.2050038
0
693.3119893
1031.549399
1759.025586
0
0
0
0
0
0
0
0
0
0
0
1082.534675
1032.565049
0
0
870.2352765
0
901.2163966
990.7334165
952.2534659
862.2342393
1148.793625
828.2392605
790.3823214
0
955.6651567
634.08798
1268.270513
0
1151.400359
807.3266989
569.6998461
708.1612165
973.9956936
888.8676063
496.439756
0
0
0
974.6987542
718.0894368
0
0
0
0
0
0
0
0
0
0
1076.088513
842.788265
0
0
437.2381723
1027.458465
1186.731115
1004.076128
759.4865226
822.3776984
662.5182135
829.1147307
1232.007356
999.8648319
2478.632288
596.4764433
556.8713411
792.9953807
468.0575827
0
0
642.9380604
588.1636925
785.486202
898.4320442
947.4419707
556.8993797
641.5107467
662.8817397
666.9693178
685.8998613
458.0692488
2490.117451
0
0
0
0
0
0
0
0
0
0
863.0857254
1064.332636
1083.876891
1076.447117
624.915814
707.2042514
885.6363525
659.1175617
954.202242
0
0
1140.400877
0
1580.810136
2530.381641
1343.880574
806.2906575
0
0
0
0
1243.6186
881.8662039
623.1731591
1033.630909
0
0
1341.676512
664.6825267
630.7320489
888.4118861
775.8759277
0
0
0
0
0
0
0
1036.666827
1136.194655
1099.819761
1088.098555
611.337816
674.3369554
648.3891011
734.6253879
971.0415319
1159.772555
953.3859706
1017.667975
908.81662
1095.249363
1050.929579
0
960.9382322
0
1464.828239
1093.079903
895.8414185
0
804.9607822
528.5404819
674.3248213
832.4815525
635.6727607
1121.54224
1052.368441
928.9789147
0
0
0
1064.831015
1115.162562
0
0
0
582.9357014
1361.358934
1296.688898
1273.777794
1026.94204
0
0
0
677.1625897
943.243165
1508.406425
335.2837747
725.8217651
1116.560273
945.5967096
810.4932726
945.4006393
0
0
0
0
1348.303367
946.2560518
807.525907
1444.93727
684.9695885
663.1812163
643.3114307
1669.122008
650.4201438
1103.603277
0
0
592.2590506
0
0
861.9657459
810.6885824
2387.299471
1718.443852
1573.790833
1439.487421
1584.970589
0
0
0
0
0
0
0
0
649.5168852
852.5858562
0
1032.300871
820.0691116
0
618.0903061
1013.396308
816.9330356
674.4965668
754.1681769
688.5246862
795.8202294
1211.664437
597.7437658
1014.862282
2645.372815
1596.910806
0
1000.801341
0
593.416863
0
0
1662.408678
0
745.9654921
809.6689466
411.0831099
2002.282661
1665.396251
0
0
0
824.0260017
594.11242
0
0
759.5491066
921.4807422
897.1187783
0
557.3242687
821.0417616
831.2500079
653.6841967
503.1637198
0
0
562.4317113
1080.795725
700.1046184
1111.470008
603.4147865
577.1383616
666.5897915
627.6358432
777.3755081
559.6166938
871.5355022
533.7017578
0
416.2436357
760.615337
966.2570375
813.7391804
638.4267418
501.8720885
758.3237198
0
0
2176.01853
1991.000844
0
0
0
0
0
0
0
0
965.9045492
606.0530976
800.7057149
1357.688436
0
0
0
0
0
602.9059527
614.4147191
0
0
957.0509719
542.9158742
620.3363236
1169.057863
622.9169309
1110.476614
1388.529482
695.3966134
684.1926418
536.5683744
1860.969099
0
0
0
0
820.8669322
0
0
0
0
2120.219162
0
0
0
0
0
0
0
0
0
0
0
956.4527669
977.713515
918.8101348
752.3876152
736.8771526
710.5478138
598.3742095
748.6277225
697.5371058
640.1980537
639.284789
668.394974
0
841.6818778
0
0
678.7474803
679.7799186
755.2635955
739.3959995
954.8247245
757.8903036
1053.397869
615.3963856
0
470.8225383
1187.599599
0
712.6980873
0
2735.021097
0
0
0
0
0
0
0
0
0
0
0
0
0
791.0796341
923.5617885
697.3731796
796.3726406
679.2818226
666.6856166
1027.115135
848.9119614
0
951.5380619
457.3918667
862.5180812
0
668.1814596
918.0284825
872.1066498
724.1889827
774.3806266
394.610647
613.8953895
0
0
0
0
1117.658407
0
0
0
2050.312206
847.2959942
0
0
0
0
0
0
0
0
0
0
0
680.1076774
1313.448088
1217.323791
813.1068643
617.7560947
953.6799611
728.2136424
921.71692
1103.480909
623.3693369
651.2003599
881.3986745
1092.088404
783.9014178
507.8200523
876.8731541
755.8893604
585.9354243
0
0
699.1280218
0
573.1787261
0
609.2776613
862.4481721
0
1683.492898
0
0
2243.875311
0
0
0
0
0
1313.49165
815.1241236
856.3091492
0
761.652518
837.1568765
739.5244969
870.685245
0
806.4918444
810.245022
828.2409004
0
0
528.4983915
694.4883487
930.3874191
1001.356513
848.0811384
0
699.9619815
1231.016076
611.6201474
628.0408437
640.1146292
0
710.3554335
870.3366762
666.4257213
0
980.4717436
0
825.510524
0
1703.860506
0
2808.239372
0
0
0
0
0
0
0
1162.81382
0
0
0
0
0
980.2200866
860.164997
1524.779925
1139.068969
0
0
0
0
0
0
675.6347008
0
891.1274958
808.4755285
938.1982355
793.2385239
577.3980219
516.1633998
0
1235.025298
820.6272388
452.0040508
817.1319374
0
807.1461869
821.5345895
0
0
2084.452261
0
0
0
0
0
0
0
1206.760133
866.5333536
1310.942571
0
0
718.9240165
876.6102483
1217.639066
793.0475989
695.7202697
720.6059402
682.230316
0
0
1030.154434
656.520038
651.7470832
0
0
716.8274768
0
1316.996615
913.8276384
0
0
669.2538656
883.9976929
714.4045963
828.2705806
532.8927052
824.0010183
0
1065.567409
2053.499695
2209.682071
1986.997958
0
0
0
0
0
0
957.454648
517.3157191
0
0
0
991.2260194
0
952.1176736
1331.435359
1107.234408
949.1245647
963.7658036
1083.902514
958.5261237
575.5114997
588.3246938
693.023125
640.3091372
1035.014187
735.4209234
0
929.6010955
832.8387402
0
0
761.330868
888.2010082
881.7432169
743.3083721
994.6405315
576.1767245
588.8422697
591.1265353
0
969.9713237
865.1935715
816.9000835
794.8376714
646.6107307
849.8704819
651.4554866
696.0314752
634.7589523
920.6311306
630.5700544
625.7931388
536.8708251
627.134882
615.7941964
701.8591783
717.7071377
340.1012665
734.6069527
706.1025375
481.4754215
0
0
0
0
552.2900795
737.2325098
913.4074899
532.3258351
570.8565992
650.2208878
605.1339553
876.7037685
540.9179326
612.5247415
762.2384249
1055.562474
661.6520934
606.0155369
0
1070.198496
0
0
0
1028.639341
1309.319915
1233.134594
775.2432747
0
0
1130.854143
0
0
0
770.4623094
981.9629298
720.413744
771.1005646
988.2162645
702.4116198
0
0
0
582.8855791
1130.293749
1071.847285
927.0557046
0
558.4750979
931.4260834
724.5058319
966.8171894
776.6463033
606.2203266
565.3935843
768.2989837
849.3913124
547.1798784
0
967.1871498
789.395369
0
0
0
0
0
0
1005.73366
0
1018.386724
1078.43124
1100.866305
1345.050366
804.1280838
0
0
631.8078774
0
0
0
1052.257941
0
0
0
0
320.1918164
1382.801218
0
0
0
0
0
0
447.6155477
909.4452334
843.6720092
644.8311063
1138.914648
762.471432
990.9373337
518.2734698
0
923.538004
920.0757655
744.8314126
0
0
0
0
1084.097131
812.9193097
0
0
780.4247451
0
1524.364518
1231.857364
1096.121038
1058.601607
831.7158154
606.367416
0
0
0
753.4205367
567.3127054
0
762.8177998
1235.641179
0
0
1378.857538
0
0
0
595.4719407
744.0908748
0
703.2113657
947.405256
824.5427581
505.5078987
0
1032.541309
0
792.7921421
0
0
0
0
0
1084.22209
1313.359283
672.6695744
0
0
0
990.8661045
738.6750624
764.8867854
566.6707464
719.1203706
0
0
0
631.8235474
629.4182519
1034.949293
770.6720286
1843.788677
675.2020812
837.0446265
784.8529218
1075.930258
0
0
0
673.185475
847.2738721
0
0
1265.158541
683.6721531
739.3430067
760.3132891
643.7188612
0
0
0
0
0
0
0
0
0
0
863.1003556
1119.042163
0
1450.441304
0
0
420.2583641
0
0
0
0
0
0
0
748.7822595
1248.921678
626.9857225
0
851.1601048
0
0
0
0
0
844.3924388
777.3572042
647.7403819
633.0866854
639.6840213
632.381111
629.3439101
672.7093246
572.300515
0
1099.222046
0
1288.894393
0
938.098809
1264.005148
1394.574668
1635.308492
1041.277202
805.1338305
840.3263684
781.152195
0
0
0
926.5128511
854.3888262
0
0
0
0
0
0
1138.617613
629.8262039
0
769.0883078
733.5753481
595.3238389
616.7512528
610.5900338
598.6087653
603.6468431
603.5811353
612.4663775
575.6432824
603.068933
574.0688659
0
0
608.0123804
621.2411698
1009.074222
837.8232436
891.6440234
862.5180812
781.4559475
996.4877224
897.8317567
981.947991
881.3726535
758.9432245
894.2437795
1143.205164
522.0175812
0
0
610.8221609
859.9274831
701.6632598
0
0
0
759.5480011
869.8370957
1024.838644
703.3697625
695.4157173
757.4886134
954.4756459
767.2862663
799.4157769
572.4810618
592.9628039
672.503232
624.799521
585.0056794
578.5662432
878.0528697
650.4106904
555.9707809
849.1916502
1130.698277
592.2194823
1074.946005
866.3565524
494.831658
0
970.7520003
942.1502269
631.7425367
779.7702739
851.0264554
1151.219255
792.7924643
770.7674146
866.4856716
806.692807
0
1164.308057
725.2463019
733.7777382
672.8792842
910.8915932
906.4492356
1023.425899
858.9716879
1002.967216
699.59979
862.013801
656.6811752
0
1003.180877
608.6522845
636.4244221
885.4888265
778.1601027
648.4788376
663.711275
684.9161142
1047.950427
948.5669908
976.4538647
926.5347624
964.5387507
712.4386132
796.2690154
744.9177943
1257.560097
767.8264292
900.6034182
752.7590703
373.8389823
638.7985835
800.4699949
940.882097
891.9490495
852.4504141
0
484.6097622
745.3733914
884.4963786
1109.366625
857.3486438
1042.890698
1132.580334
938.4192085
883.8309537
842.2391693
831.907763
696.2856009
869.0457383
613.1302857
561.1623851
1028.76817
927.8281805
688.7001299
713.7218302
710.3738265
664.5851659
1104.325905
831.278838
763.9047493
871.5092676
1243.703945
1019.197896
894.6086196
769.6712543
1651.068371
1204.059545
848.3713023
874.0529143
885.9180387
767.6294669
596.0446648
832.4598901
891.2533326
934.8095301
1147.334942
696.8230739
988.1843459
925.0098022
1022.148653
1128.349673
823.2865166
925.9841078
1146.402458
961.5169639
783.8678933
1070.815232
0
677.5502597
862.8150093
615.2523297
661.1770465
631.5328053
848.8851124
947.5030705
592.1240547
866.9048013
880.1045097
1024.036885
873.1941908
967.5839267
675.6822763
962.860514
749.539248
989.8873689
477.1553692
1008.598474
1339.951995
866.7245052
1049.422822
955.0419899
707.8670545
0
1316.133459
869.7756104
825.0994521
902.6792154
1175.10423
720.1162006
507.5179617
1138.903472
1082.729265
863.0361664
814.2541428
1058.79353
808.9525322
1182.725489
847.5301878
1129.522756
810.6644418
695.3602631
1067.377533
1076.130911
782.5498471
0
641.7635746
924.6989946
577.5553803
0
790.3097499
990.9947506
587.8442857
0
1078.516286
841.15211
787.5993186
826.2895931
743.2587181
737.0313448
977.0378913
969.9153807
922.5491301
564.2051721
620.5436699
765.233094
867.7587162
470.9239503
1015.819097
896.1034458
1174.425978
923.0076033
805.1068252
1017.947984
895.4178456
845.2888853
949.3237473
1029.234867
0
817.6925855
572.4262024
822.3381701
0
0
0
833.4344023
974.5818744
1159.715484
1034.653197
410.1040718
634.2965844
1108.994286
911.3117072
604.7777122
0
742.7229253
869.6664195
868.317272
733.5236034
1040.763732
908.8230856
990.6973535
886.540525
737.7463383
899.4320134
1167.88706
1001.097731
815.952838
875.3287043
0
0
1363.224128
0
956.9862013
871.6351247
0
0
721.4415557
0
0
911.0656035
0
0
562.8688792
584.9150631
1069.567348
912.4091565
967.5178122
802.8242753
930.6406537
841.6722793
938.5900049
1034.180631
755.7962512
972.7886366
743.2302478
956.2400059
1004.60724
983.259931
990.1998037
1006.100148
984.22383
976.3405872
979.8787333
999.6733986
1253.483809
0
1068.868003
1494.194487
551.5360171
0
0
0
0
0
0
0
635.0470986
0
916.5869098
1342.921146
1059.805383
517.7547276
846.0843993
1002.297211
953.2798011
1058.422173
1203.645392
1085.282529
1000.587379
993.9782342
987.6727028
987.7850336
987.4497581
975.954283
988.570773
972.1021357
982.5958021
980.6162656
996.3341692
989.1157283
0
0
0
0
0
0
0
0
0
0
613.5301792
1378.692257
1151.915387
599.4481366
1185.025415
731.2051983
898.1513022
791.8376438
918.1901172
892.3253894
918.4241577
989.5294931
992.7426072
975.2242587
978.4679833
979.5045079
993.0138374
974.7834291
962.2696642
961.6931552
979.8310334
976.9430315
981.6290763
988.120616
980.476738
983.7834133
993.5760742
0
0
0
0
0
0
0
913.8223371
604.0127313
0
1001.284851
922.5063763
579.7792255
837.5787084
688.670877
776.5776189
1024.812361
848.1421989
868.2222054
982.6774007
982.2354991
973.6146002
968.0905524
988.9192648
977.9868075
971.6002207
962.4143235
974.1766281
977.112685
965.0741189
965.1283544
974.090324
982.4293935
983.2080318
969.8161338
995.4937545
1002.477833
0
1056.954057
0
0
0
0
0
1661.964812
0
1094.897761
1322.292185
944.0358062
991.4137261
620.4994035
1025.686279
658.9610655
1039.084294
998.9061234
987.0439879
980.8324117
984.7640075
999.704545
965.5993689
971.6604618
978.9089105
938.1721412
955.2148328
955.1909624
951.3689894
946.3202129
950.6354743
972.7235751
980.2918958
973.4177768
982.0107695
989.8964736
975.9812384
980.0165881
0
1125.267445
0
0
0
0
0
0
0
819.6042443
1324.734849
1078.232013
1072.372785
1003.889751
730.5547969
885.9921754
1143.870607
997.0616829
993.0259095
984.681867
969.4584104
972.1451826
964.9455238
955.3760942
961.0354838
962.0914592
941.603654
940.6146345
934.8943227
936.8571583
946.3845405
943.2706578
938.3377358
975.2297457
960.8244622
975.0827258
977.3763424
988.5779773
983.5372149
0
0
0
0
671.1208667
0
0
0
1252.523887
1374.198449
1220.177276
1020.615204
984.9266918
927.6663699
846.2200715
1095.767704
991.3061387
984.5822269
972.860109
979.3395975
961.4546284
961.8245564
961.2034168
939.8487071
947.4306445
952.8349108
937.0522381
924.5034793
951.996498
954.3266003
950.2643112
966.6841834
953.7080952
964.6801918
967.5752329
983.1362883
982.3749582
988.6169054
0
0
1627.360006
0
0
0
0
0
944.4262212
815.0728768
862.9425213
1005.416
654.5108458
896.7030803
973.1969213
1004.881933
985.2379386
989.776926
955.9614691
978.0003352
973.3590773
970.3960031
946.5709797
935.2274842
942.369764
933.9147914
926.9956119
914.0049432
936.392918
926.4962271
929.8551368
951.6287054
955.4085398
957.0410258
968.5289652
974.5338385
987.2269787
977.0360008
985.4164252
0
1616.991822
0
0
0
0
0
1057.819984
694.8162942
824.0035735
934.2955485
964.6148036
792.688825
962.0495612
992.2802417
990.9154721
977.980006
946.5550882
945.9216498
954.4708053
945.114769
940.9925797
921.05139
927.0182431
915.3297645
912.0333554
908.0047904
924.2980268
919.1461445
925.8183712
932.8745021
958.8096662
964.0703318
968.3787643
971.2707189
967.5734854
985.8892751
985.429424
0
0
0
1675.447099
1210.550531
0
0
874.5108176
986.4683309
937.3174205
892.5355245
691.6199704
970.1190316
1004.402506
992.5349707
969.6328856
965.1699533
952.9792896
964.7126402
955.9943124
942.5605276
929.816881
916.4849107
917.7475566
899.4705817
889.6100791
890.2546037
895.4600578
907.0591753
913.7964482
934.0464008
937.3289046
959.3700048
970.4973724
981.0230476
965.9989089
994.1685553
996.2278559
987.1788121
1411.206812
2895.196247
0
0
0
0
1647.176277
575.791398
666.4177051
903.9535081
792.7855093
805.9901666
986.2883051
985.8214896
977.0135563
985.0014727
953.4282146
957.2663738
933.1641596
936.6404119
914.6016911
906.9755425
892.6613763
879.7890429
867.7135515
870.4611177
866.0014511
886.5153287
906.5924624
926.0357256
932.2012763
930.600526
952.4314564
962.0291044
974.3263528
971.2513059
972.0281938
998.8934138
1556.120347
1177.254365
0
0
0
0
1007.795221
1482.141939
731.1233157
978.4392046
704.8522236
842.548264
982.9634929
985.86992
986.3703754
955.5789755
960.1411013
947.6028671
932.051292
926.4930659
916.7637535
895.1971528
876.9673262
860.4008873
851.5885288
848.9627527
859.0657671
880.2252401
897.9781059
911.1706309
931.552177
933.689458
957.2121195
960.6163231
976.8963817
969.3775037
978.0524248
1007.800305
0
0
0
0
1635.581802
0
847.4148574
688.3431778
910.1952028
1037.761691
1138.239149
905.3808827
986.190149
983.623423
963.6350799
963.261562
952.7130027
934.0532917
936.4315092
918.949106
903.9304245
883.7955059
864.3084529
848.5375535
842.5771134
846.2867794
849.7385202
867.2384373
892.0405745
908.4412006
929.9210625
956.1282667
952.1739405
971.4554577
976.8495333
975.9227386
990.8200833
997.8166231
0
0
0
0
777.7340412
2216.664568
1410.101577
1030.138666
1042.770156
1036.725079
1150.220888
1112.108983
990.9962868
976.6650003
991.58929
967.5450145
945.0586948
967.1099119
944.7400236
931.8361623
916.2919278
895.3812337
864.1407685
848.8681893
840.8137844
838.6285541
856.4668618
871.8864444
889.7467686
912.280952
942.0445567
959.8740579
955.2639729
952.9765333
977.1362375
1005.211068
989.2320099
987.1587701
0
0
0
0
0
0
1077.79819
1274.919039
1266.836014
899.2945727
1013.010317
1017.659688
985.0730666
985.8811701
976.3040005
964.9453721
956.25941
944.2543952
944.2365008
920.3346164
909.7994529
896.2973207
870.957013
857.7598338
846.4331164
850.2095016
861.1801176
879.5570729
900.3321382
906.4977954
921.6415964
945.7014007
955.1620703
945.9452062
970.4308911
971.5943951
993.6815055
997.5682423
0
0
0
0
0
0
842.3839352
911.8372233
1235.536324
1017.531543
1069.950361
1190.580333
979.7886861
967.2224668
986.0788517
977.0043906
949.7215622
948.6358834
945.5497214
934.9867139
915.2716985
907.1466433
881.9567122
874.3126174
862.5966104
864.510105
873.5680464
892.0807862
911.6755356
915.7552934
935.3114075
953.2288077
957.3422738
968.5557139
980.5635501
994.798514
1003.447798
999.699479
0
0
0
0
1096.726025
0
1275.40681
727.988937
834.219416
803.5018161
1172.577895
1108.262529
1010.267796
986.6355846
976.8394357
975.2366609
966.1545868
957.8363223
955.238961
939.9532837
936.886861
912.8166191
905.5185112
898.5878512
894.1187003
888.3033192
902.8699283
916.9416563
917.8051711
926.1234503
936.6504218
956.9869237
969.5072986
968.3371078
970.67191
982.2374725
988.5717368
995.2160824
0
0
0
0
1001.250865
861.5729858
736.7588643
940.7753952
867.1612533
1156.030289
888.0577672
865.1064466
1101.353256
983.6925358
990.2801574
984.5989239
958.3853175
951.4938395
958.3993559
955.8867457
948.0733056
930.9888856
934.8295618
918.9913473
908.094557
906.9671511
914.5259878
932.9756005
937.5034412
939.5580552
950.5532741
961.9338851
968.7307689
974.858274
982.7960256
1001.658127
980.7248702
0
0
0
0
0
0
0
686.9466805
1001.573782
851.78655
1037.257674
982.031681
990.7673138
902.9971457
1000.349425
993.820039
991.1937341
978.4677844
954.1156384
940.1414709
936.8501026
952.6343767
939.2310748
936.2564602
931.1749898
927.7414077
934.2758999
925.3825202
946.3282908
956.1042845
942.4087637
964.0067061
973.3968669
971.4903946
987.5369323
978.9465066
979.2655016
989.0145552
0
0
0
2341.17896
0
0
1024.62886
700.0655376
1141.520208
1055.427737
1017.429793
1055.502945
945.1550379
904.7573112
1052.503528
986.5956801
994.4777587
995.1173419
949.9381871
952.1899644
967.2228235
956.3449912
950.2935813
941.8061355
931.2698145
933.2402606
942.3486822
940.038662
944.0655738
946.5091604
943.9307544
955.3387403
971.085826
983.7512389
994.0476144
969.5328935
984.5707414
0
0
0
0
2402.546499
1779.277055
0
0
924.5862596
1074.343865
1191.124483
1171.560269
882.4352281
946.8544227
1092.535242
889.9347764
991.1807
992.4206992
992.4061239
953.2398074
964.1484364
965.5549727
987.2233638
959.0573992
968.1133524
932.9193548
968.7764568
943.4542278
949.9174905
945.6415985
957.0764717
960.1502656
964.0554849
971.7038251
980.3818645
983.9610173
986.1044378
1000.76362
0
0
0
0
0
2418.52048
0
0
913.372906
894.6587777
830.3397056
789.7483642
946.7574776
884.9254491
1079.925132
1146.155056
1065.003342
1004.329904
994.2838018
967.2874956
975.7763651
964.1984124
972.1074241
950.2968121
956.620211
945.8888066
957.4409681
949.1940598
954.0878273
964.322051
967.0166608
964.9371202
986.3924883
977.9325576
973.8937923
998.8582818
982.6151776
0
0
0
0
1101.394169
0
0
776.3057255
531.9326784
1843.293219
1116.615548
1111.673589
1167.611598
1219.591512
1095.127644
1276.218177
1004.90968
845.208124
991.4401682
976.2924656
985.870429
981.281052
968.8623526
967.1863722
948.5074676
969.4088076
969.9088096
965.5015928
961.05239
970.0881015
987.436867
975.8217833
978.304156
993.8202669
992.4831286
1005.944496
0
0
0
1193.63875
1848.503899
1001.18374
830.5358648
550.7111567
0
1170.807515
1064.915638
1059.783943
1055.487666
848.6852745
1312.259088
917.5637411
842.1218795
1038.331217
929.6545528
996.0870108
998.9562904
980.0961081
986.5233583
974.9182786
987.9676107
976.5018831
956.8565703
970.8033
990.3168408
984.9717553
984.8243527
984.1698155
977.0142144
985.6581461
999.8669996
404.8703584
0
0
869.3166624
0
1122.821351
0
1014.83872
1795.010689
1260.976786
1457.145823
1097.737382
648.0815288
947.3238212
994.6709377
478.9232218
760.4589219
835.808586
711.5591763
914.4741186
1031.445604
985.9473848
992.3322147
984.547111
992.088431
985.9841108
987.2613515
991.2981266
988.4883088
986.3495126
995.96909
985.8239007
987.1160113
834.002528
1991.491944
439.5216524
0
1192.922483
824.6575783
891.3818054
0
1405.4096
0
0
998.7219657
1053.031897
1015.594764
0
781.8148667
717.4024403
973.7291269
874.4995164
756.5632552
757.5246294
785.9652302
789.5991131
1024.789014
998.8725181
1001.370587
999.1350856
996.5805387
991.9216837
996.5528628
993.8594016
989.3383625
1364.058851
895.9994784
1103.221186
0
1581.331699
0
562.961618
737.9035009
0
0
1126.176579
0
0
884.4561992
553.2543941
688.389678
984.3171148
742.4417869
706.6189689
849.9645725
589.8026237
829.5252866
649.4760023
926.3580915
1207.002863
1045.574928
1014.693104
876.7760957
1685.091664
1314.932442
835.0894202
710.2148902
975.1769425
807.3914077
696.2564095
843.6539301
1010.837609
0
382.0257011
786.3420287
1117.929924
845.4990288
929.290201
1044.24943
989.1014003
1051.713222
1180.11176
1168.987097
842.3271103
1072.075481
1061.817276
814.5587984
969.8661454
1241.168939
902.0042152
1016.344233
967.9231954
947.6664617
952.4141678
1044.331973
0
1126.963522
695.8744353
933.1328656
1255.20619
993.4500019
1453.26047
1335.059207
829.4885406
873.3869532
902.6640527
893.4758637
882.1376538
917.651547
1220.456067
655.040351
978.0611225
1155.545899
927.3263628
1158.46028
1002.831027
673.4353695
871.8371624
995.8038569
924.7220671
915.5471823
848.165379
1165.223194
744.0303332
910.7859566
782.3212289
785.4391952
977.4616469
1026.153512
789.038624
1186.677847
1121.495507
979.6635714
691.0270956
977.9997747
827.4498686
1070.459382
1012.057287
723.7794533
1510.81939
733.7726089
799.2482734
858.8252294
694.9834753
876.361282
642.1881457
964.332837
847.7091555
683.1325395
890.4515748
615.0547913
1060.366119
963.8705361
0
1034.103761
1514.698663
870.2818267
1025.109426
761.7673872
1225.762741
1188.373929
720.103191
972.5440671
848.945028
888.1721976
789.43984
900.2862662
814.2498433
1011.213228
984.8990487
773.4422109
930.2337204
798.2775768
1094.796378
1153.308785
699.9349348
864.6093646
806.5738375
962.7810251
603.1500409
939.2063519
767.3173613
845.7713657
916.8388725
776.945878
0
982.8292927
701.5765473
0
862.2363597
1371.807813
741.8835739
902.4515488
912.536609
997.492471
0
1167.530301
1082.628181
928.1580405
0
837.3966002
1162.565978
950.6500489
963.989932
779.2328791
675.5264754
741.6862624
843.3908211
777.2822347
736.8622459
860.1573715
1182.435134
788.2241649
933.1110055
901.80865
899.0523876
975.2798772
1065.788903
1026.499806
1068.50311
1083.257469
730.7121497
0
971.5990988
0
435.1592768
874.5652233
810.1395541
536.5433824
0
490.8536472
695.0594633
547.2875474
794.6150997
778.0386689
0
998.956677
0
1051.881789
1188.979122
1218.621998
934.351292
617.8174779
1012.299655
917.6554089
706.8916961
964.2623479
893.7256756
1007.881293
1390.139525
959.9651197
769.6943576
882.8057334
971.2077714
608.3389253
741.8721195
702.9208148
953.3377919
965.867654
1027.192507
1001.273138
757.3265394
618.4802694
766.6233478
729.8470264
798.5865693
732.8857645
640.9118557
680.4901631
765.6496398
483.8678224
1204.426549
834.0991615
606.9204443
774.910951
1064.822859
880.8469123
644.359191
1051.563513
392.0858667
0
0
1022.959053
1139.217902
1014.042438
728.5112754
1293.763255
434.0485042
1239.676658
1027.222711
948.1803536
1006.449603
799.9032254
487.8728689
443.9717523