/*--------------------------------*- C++ -*----------------------------------*\
| =========                 |                                                 |
| \\      /  F ield         | OpenFOAM: The Open Source CFD Toolbox           |
|  \\    /   O peration     | Version:  v1706                                 |
|   \\  /    A nd           | Web:      www.OpenFOAM.com                      |
|    \\/     M anipulation  |                                                 |
\*---------------------------------------------------------------------------*/
FoamFile
{
    version     2.0;
    format      ascii;
    class       volScalarField;
    location    "3.989";
    object      Tvib_N2;
}
// * * * * * * * * * * * * * * * * * * * * * * * * * * * * * * * * * * * * * //

dimensions      [0 0 0 1 0 0 0];


internalField   nonuniform List<scalar> 
50792
(
0
1215.831246
1834.037618
0
0
0
2328.559575
0
0
0
0
0
0
0
0
672.1869754
976.5740316
0
0
0
0
0
0
0
0
0
0
0
912.3019617
854.4002209
710.9196061
0
0
0
0
689.7279301
996.4570219
408.4076195
1029.257987
624.1843227
622.4765234
617.2058634
0
0
0
0
0
0
0
0
0
1365.381906
0
0
0
0
931.9845993
466.8733332
1018.443464
0
0
0
0
0
0
0
777.855812
681.8211378
684.5572241
676.704223
506.7778159
985.1113106
0
0
0
0
0
1165.601705
604.5291696
620.1637749
1258.903789
0
0
0
0
0
0
0
0
0
0
0
0
892.0756054
1062.44229
0
0
0
1028.007885
0
854.2656489
551.6432301
755.8984487
655.2699808
0
0
0
0
0
0
0
0
0
914.3804509
0
0
610.6849403
0
1123.351697
800.5996579
702.9793734
403.5208116
976.2207147
519.3565836
0
0
0
0
0
1041.971823
1685.043179
0
0
0
0
440.7811594
0
1205.427241
1302.712513
0
1114.145272
716.8145513
763.797846
748.4767375
0
0
0
0
0
0
0
0
0
0
0
1286.053252
944.1436379
0
0
1044.582249
1121.673553
0
0
770.1931024
1208.363252
1103.815267
945.6064161
757.963845
0
0
0
0
0
0
0
0
0
0
0
0
0
0
544.021689
804.7274789
553.6466631
0
0
1032.37125
0
696.4811767
0
714.886636
475.5371305
0
0
0
1006.505067
0
0
0
899.3345774
1092.516767
0
0
0
1053.249972
1051.188204
0
0
0
0
0
0
0
0
0
0
0
0
0
0
1011.186603
0
686.1870167
806.9818132
0
0
0
0
0
0
784.6804497
687.6024719
529.976899
0
0
0
0
630.970676
0
0
608.0942543
1165.002318
0
0
0
764.1448925
1083.287322
0
0
0
0
0
0
0
0
0
0
0
0
0
0
0
0
0
970.0413366
0
0
0
0
0
0
0
578.4876524
781.0895777
705.660573
1029.919613
878.1374135
0
881.1173445
767.1579975
579.2282196
0
0
0
0
0
0
824.3167254
1027.005093
0
0
0
0
0
0
0
0
0
0
0
0
0
0
0
0
0
0
0
0
0
0
0
0
0
609.1437638
673.6306596
0
0
0
0
585.9178809
0
569.6968846
0
0
0
410.5770167
0
0
923.6940215
1197.862403
535.4033193
607.4601234
0
0
2260.930611
0
0
0
0
0
0
0
0
0
0
0
0
0
0
0
0
0
0
0
0
0
0
603.0958089
671.2151826
665.6177156
697.7458063
580.4466775
685.080585
651.7314106
930.1413677
811.0895081
0
0
0
0
0
949.8206448
0
0
0
0
0
0
0
0
0
0
0
0
0
0
1000.973521
1053.091546
0
0
0
1274.435654
0
0
0
0
0
0
569.2270473
791.5418799
0
0
867.0756093
912.1965987
898.2689885
1007.5395
1084.863635
0
0
0
0
0
0
1204.975696
735.3106145
815.8564327
723.9593985
634.8499074
0
0
0
0
0
0
0
0
0
1086.383894
933.4564014
1237.856934
967.9116936
1056.901247
0
0
0
0
0
0
0
0
0
0
0
0
0
0
411.7073174
0
0
0
464.7279445
0
0
0
0
970.4553157
651.8322391
0
1055.956833
0
1047.260032
0
0
0
0
0
0
0
1091.95758
601.2427127
0
1125.731655
1219.96838
0
0
0
0
0
0
0
0
0
0
0
0
0
0
0
0
0
0
856.356525
509.0041087
0
0
0
0
1040.724491
896.5828064
1147.975849
685.7770487
0
0
0
0
0
0
0
0
0
0
0
0
0
0
0
0
0
0
0
0
0
0
0
0
0
980.6696784
534.0333728
0
0
0
0
0
0
0
0
0
0
1252.195141
726.3867296
0
0
0
0
0
0
0
0
0
0
0
0
0
0
0
0
0
0
0
0
0
0
0
0
0
1455.938614
0
0
866.0292095
832.508135
995.6804987
940.4779348
659.1617673
701.1730893
788.0220161
0
0
0
0
0
998.6783728
0
0
0
0
0
1097.555925
0
0
0
0
0
0
0
0
0
0
0
0
0
0
0
0
0
0
1018.621511
618.5767368
1658.536092
1422.26481
0
0
815.9028614
1032.783046
974.3170786
0
0
933.16365
0
0
0
571.0770058
0
996.6769154
624.4166479
0
0
0
0
979.5187595
0
0
0
0
0
0
0
0
0
0
0
0
0
0
0
0
0
0
0
0
0
0
0
0
0
0
0
848.4887872
709.1482152
661.9648219
671.1551526
664.0360532
857.9337479
1255.896738
0
1239.579596
732.6313006
508.1165408
0
0
0
2171.446725
0
0
0
0
0
0
0
0
0
0
0
0
0
0
964.7657721
0
0
0
521.5568513
935.1573861
0
0
0
0
1018.124146
961.9788073
611.5441235
0
0
0
0
0
577.4060834
877.7974973
1548.908644
994.538944
1127.978014
525.8056318
0
0
0
0
0
0
0
0
0
0
0
0
0
1000.661199
0
0
0
0
955.4854794
948.3373214
0
0
1026.675176
1094.085553
766.2138492
727.2840936
671.232121
710.5423949
952.8979084
738.0077398
0
518.7224342
0
0
0
0
0
1036.082085
1169.953644
1616.955818
0
709.2497945
728.3691928
0
0
0
0
0
0
0
0
0
0
0
0
1177.534576
0
0
0
1078.427099
0
1056.055172
0
0
0
0
0
0
0
0
1109.865859
698.722785
768.1660032
858.3446226
662.116683
0
720.2428184
0
0
711.3502415
1070.172262
1328.469186
1531.585098
608.007441
0
0
0
2472.930932
0
0
0
0
0
0
0
0
0
1053.818928
786.1679876
0
0
0
0
975.2827561
0
0
0
0
873.9466693
648.8513286
0
0
1069.304358
1119.996824
1076.302478
760.273641
0
0
0
0
627.5292363
924.6634577
920.5561822
1005.441495
1191.285869
1437.114103
743.0751638
628.973057
0
1483.23683
0
0
0
0
0
0
0
0
0
0
1074.004519
1250.596343
0
0
548.4028668
954.5738646
0
0
0
646.0142442
758.9487083
1424.703207
971.1976459
1445.25991
0
0
0
0
0
0
0
0
1017.619085
745.3025195
1028.973279
0
892.8544064
874.2050038
0
693.3119893
789.5172995
1759.025586
0
0
0
0
0
0
0
0
0
0
0
1082.534675
1032.565049
0
0
870.2352765
0
901.2163966
990.7334165
952.2534659
862.2342393
1148.793625
828.2392605
790.3823214
0
0
0
0
0
0
0
656.3015407
612.2308014
0
1009.231655
0
0
0
0
0
718.0894368
0
0
0
0
0
0
0
0
0
0
1022.638973
842.788265
0
0
437.2381723
1027.458465
1186.731115
1004.076128
759.4865226
880.4689839
0
0
1347.62595
913.0465029
0
0
0
0
449.0555433
0
0
642.9380604
588.1636925
704.8720209
1015.718931
1059.357838
556.8993797
641.5107467
662.8817397
666.9693178
685.8998613
458.0692488
0
0
0
0
0
0
0
0
0
0
0
863.0857254
1064.332636
1083.876891
1076.447117
624.915814
705.8309796
991.0419427
0
0
0
0
1140.400877
0
0
0
0
0
0
0
0
0
1243.6186
0
623.1731591
1033.630909
0
0
0
0
630.7320489
888.4118861
0
0
0
0
0
0
0
0
1107.642272
1136.194655
1099.819761
1088.098555
0
0
0
742.1899245
0
1192.88116
882.1446764
0
908.81662
1095.249363
1050.929579
0
0
0
1150.868043
735.4107282
895.8414185
0
0
528.5404819
674.3248213
750.0309005
635.6727607
1121.54224
0
850.8969847
0
0
0
1064.831015
0
0
0
0
582.9357014
1361.358934
1296.688898
1273.777794
904.8730524
0
0
0
715.4545352
951.4099837
0
0
725.8217651
1116.560273
945.5967096
810.4932726
945.4006393
0
0
0
0
0
1010.184777
646.6013897
1083.838498
659.1915736
663.1812163
643.3114307
0
660.0228462
0
0
0
592.2590506
0
0
861.9657459
810.6885824
0
1718.443852
1573.790833
1439.487421
1584.970589
0
0
0
0
0
0
0
0
649.5168852
740.9456584
0
1032.300871
820.0691116
0
618.0903061
1073.285334
734.0588434
701.7893911
754.1681769
701.8407577
687.9404578
1211.664437
597.7437658
1014.862282
0
0
0
0
0
0
0
0
0
0
0
809.6689466
411.0831099
1718.132879
1665.396251
0
0
0
824.0260017
594.11242
0
0
759.5491066
921.4807422
897.1187783
0
0
0
0
0
0
0
0
0
1077.559832
700.1046184
1111.470008
583.1146809
0
0
0
853.0059834
483.3984663
708.8358578
533.7017578
0
0
713.7178098
966.2570375
685.5246773
0
0
0
0
0
1831.008869
0
0
0
0
0
0
0
0
0
965.9045492
606.0530976
800.7057149
1357.688436
0
0
0
0
0
602.9059527
548.2666313
0
0
1048.81142
578.0052629
0
0
0
1110.476614
1388.529482
695.3966134
684.1926418
464.8338281
0
0
0
0
0
0
0
0
0
0
0
0
0
0
0
0
0
0
0
0
0
0
956.4527669
977.713515
918.8101348
752.3876152
736.8771526
710.5478138
598.3742095
748.6277225
697.5371058
588.0473176
653.9558567
668.394974
0
0
0
0
678.7474803
0
724.3804582
570.5742515
959.4517958
0
1053.397869
615.3963856
0
470.8225383
1187.599599
0
712.6980873
0
0
0
0
0
0
0
0
0
0
0
0
0
0
0
767.0388203
955.8600637
697.826903
813.9819447
0
624.6095921
968.0425076
0
0
0
0
862.5180812
0
668.1814596
963.0111031
719.3059324
769.2330481
774.3806266
0
0
0
0
0
0
1117.658407
0
0
0
0
0
0
0
0
0
0
0
0
0
0
0
0
680.1076774
1489.790377
1217.323791
813.1068643
617.7560947
953.6799611
728.2136424
921.71692
1163.634425
612.5135745
641.5673142
0
924.2274901
729.9193168
464.2467293
748.8849716
770.2348286
596.3050464
0
0
699.1280218
0
0
0
609.2776613
862.4481721
0
0
0
0
0
0
0
0
0
0
1313.49165
815.1241236
913.0819267
0
761.652518
837.1568765
0
972.9231357
0
806.4918444
703.0877039
0
0
0
0
0
990.2527432
1001.356513
848.0811384
0
829.2523136
1228.068649
659.3371664
656.2478992
592.1353844
0
710.3554335
0
0
0
980.4717436
0
825.510524
0
0
0
0
0
0
0
0
0
0
0
0
0
0
0
0
0
980.2200866
0
0
0
0
0
0
0
0
0
722.8205356
0
0
0
983.2575604
881.6270996
577.3980219
516.1633998
0
1235.025298
820.6272388
452.0040508
817.1319374
0
734.6394464
869.2573674
0
0
0
0
0
0
0
0
0
0
0
0
0
0
0
718.9240165
876.6102483
1217.639066
793.0475989
729.6155833
720.6059402
695.9610291
0
0
1093.697222
635.1516754
0
0
0
0
0
1316.996615
913.8276384
0
0
669.2538656
883.9976929
0
828.2705806
532.8927052
728.9757555
0
0
0
0
0
0
0
0
0
0
0
0
0
0
0
0
991.2260194
0
952.1176736
1331.435359
1107.234408
949.1245647
971.4994419
1127.817264
996.7678693
0
588.3246938
693.023125
668.2784521
0
894.5202293
0
929.6010955
832.8387402
0
0
761.330868
969.8518521
930.7372502
0
990.0883576
0
0
591.1265353
0
0
0
0
0
619.182959
876.035477
0
0
0
0
0
0
511.8031723
0
0
0
762.1292435
0
0
0
0
0
0
0
0
552.2900795
707.6652735
853.4390821
412.2278786
0
669.7223587
0
977.9038368
0
601.4626869
762.2384249
1055.562474
671.7514039
0
0
1070.198496
0
0
0
1028.639341
1309.319915
1233.134594
775.2432747
0
0
0
0
0
0
0
995.2619023
0
0
0
0
0
0
0
0
1231.366494
1047.355746
992.601858
0
558.4750979
931.4260834
804.6009057
1003.045792
818.1994839
635.773984
0
0
790.4849445
547.1798784
0
967.1871498
789.395369
0
0
0
0
0
0
1005.73366
0
1018.386724
1078.43124
1062.247528
1355.543753
804.1280838
0
0
0
0
0
0
1052.257941
0
0
0
0
0
1382.801218
0
0
0
0
0
0
447.6155477
909.4452334
843.6720092
644.8311063
0
800.5642871
1136.702684
518.2734698
0
923.538004
920.0757655
744.8314126
0
0
0
0
1084.097131
855.069696
0
0
791.4457428
0
1524.364518
1231.857364
1096.121038
1058.601607
831.7158154
0
0
0
0
753.4205367
567.3127054
0
762.8177998
1246.703814
0
0
0
0
0
0
571.1539242
843.0820815
0
703.2113657
855.3062456
824.5427581
0
0
0
0
792.7921421
0
0
0
0
0
986.6789223
1479.094499
672.6695744
0
0
0
990.8661045
738.6750624
764.8867854
566.6707464
719.1203706
0
0
0
631.8235474
561.6719242
1043.373145
0
0
537.300669
732.4901045
587.5890956
0
0
0
0
673.185475
847.2738721
0
0
0
683.6721531
739.3430067
760.3132891
557.6777915
0
0
0
0
0
0
0
0
0
0
863.1003556
1145.293839
0
1450.441304
0
0
420.2583641
0
0
0
0
0
0
0
0
0
0
0
851.1601048
0
0
0
0
0
844.3924388
777.3572042
647.7403819
633.0866854
639.6840213
632.381111
629.3439101
672.7093246
572.300515
0
0
0
1288.894393
0
0
1264.005148
1394.574668
1635.308492
1041.277202
0
728.3418486
781.152195
0
0
0
0
958.5229101
0
0
0
0
0
0
1138.617613
629.8262039
0
783.1172912
762.48344
595.3238389
616.7512528
610.5900338
598.6087653
603.6468431
603.5811353
612.4663775
594.1483856
603.068933
574.0688659
0
0
608.0123804
621.2411698
934.4225359
818.27094
891.6440234
862.5180812
815.9016525
1173.608565
897.8317567
1160.249474
913.8792561
898.7447945
742.4790889
1165.313292
550.1626874
0
0
550.1843602
832.4426998
701.6632598
0
0
0
0
869.8370957
1024.838644
672.4638155
590.5173512
632.7566546
954.4756459
750.3756414
875.5856617
594.1044299
592.9628039
672.503232
624.799521
585.0056794
578.5662432
878.0528697
650.4106904
555.9707809
849.1916502
1130.698277
592.2194823
629.4419553
798.7799196
0
0
970.7520003
0
631.7425367
867.0596106
831.0891237
1449.614505
858.8086545
795.1175213
866.4856716
806.692807
0
1148.480643
787.5067026
660.79245
719.7956432
910.8915932
906.4492356
1023.425899
858.9716879
1035.793531
662.7170155
862.013801
656.6811752
0
1079.64516
678.8115736
609.3720185
885.4888265
744.4272271
590.5903309
671.2022318
706.69378
1048.391361
1022.011389
976.4538647
926.5347624
1114.401459
731.1145603
0
0
0
675.3745641
900.6034182
732.7060398
0
638.7985835
869.5827029
1059.653212
891.9490495
852.4504141
0
484.6097622
771.3899306
853.5901665
1178.839126
908.9565697
1155.86487
1132.580334
938.4192085
883.8309537
842.2391693
900.6840714
696.2856009
869.0457383
613.1302857
561.1623851
1108.70976
848.9469461
843.7871971
657.347659
626.0568467
635.8602913
1187.706749
798.7619025
752.2479088
871.5092676
1243.703945
1079.40621
946.6882481
769.6712543
0
0
788.7438275
562.2357497
887.9207206
767.6294669
607.5212907
846.0487292
821.5507085
0
0
681.2558778
1003.733056
995.6406586
1004.042468
1215.393804
797.098956
1049.995776
1225.292512
986.2397305
819.7082289
0
0
686.3663134
862.8150093
637.6590792
0
593.48274
838.2800362
928.4889802
581.4767286
0
880.1045097
1024.036885
877.070546
967.5839267
613.0556685
998.3861117
739.6510835
966.2757823
0
0
0
849.4979654
1083.394785
936.0685072
747.4378023
0
1341.085483
866.7078582
742.8906493
0
0
774.5603726
414.564092
1142.711892
1187.959099
792.112753
622.87302
1123.346549
851.1584435
1271.43629
810.4467277
993.3721251
725.5659255
611.5427326
1168.003013
1154.076711
910.1745297
0
632.3572959
924.6989946
577.5553803
0
0
1003.18216
525.613405
0
1078.516286
841.15211
787.5993186
872.5815181
770.7724199
793.0265419
977.0378913
927.8882084
958.0295385
495.4337154
564.4380542
765.233094
861.1342025
405.7437688
955.9119546
873.789808
1229.773623
1027.937958
887.1767462
1013.873112
875.9717684
846.2422584
909.6573198
0
0
0
0
0
0
0
0
833.4344023
974.5818744
1159.715484
1034.653197
410.1040718
634.2965844
1108.994286
911.3117072
651.6973899
0
0
797.7122817
808.0837736
668.0706218
1135.211756
752.9029286
955.0953824
963.1384073
662.5817002
868.8757443
1230.788669
1026.929201
810.8189249
914.1637906
0
0
0
0
956.9862013
871.6351247
0
0
721.4415557
0
0
0
0
0
562.8688792
584.9150631
1069.567348
908.7992167
818.0842892
729.0954856
1015.853367
877.6815203
878.6128827
943.0685813
733.8688969
988.7553791
712.6970602
921.9837101
1003.78784
976.7314468
988.4934482
1007.597713
985.8408418
977.7706927
976.3159221
1005.695197
981.6577055
0
1068.868003
1494.194487
551.5360171
0
0
0
0
0
0
0
635.0470986
0
919.5115618
1342.921146
1086.153619
404.7864943
815.7674071
909.0370874
946.6247242
977.6032341
1286.201217
1078.472744
1003.282633
994.9656677
989.1398231
986.5604293
985.9071545
975.3715433
994.3479334
965.5632642
983.9944014
992.4317918
1001.55812
987.44734
0
0
0
0
0
0
0
0
0
0
613.5301792
1471.890076
1079.484633
545.4576343
1225.788369
733.2255772
892.6855565
834.9812041
735.8829088
919.1874479
892.2006426
994.2965994
995.7476686
978.647986
983.5918938
981.9351663
996.0160038
969.6150168
956.3763854
963.1980054
982.4255924
972.4636892
979.0640408
991.264792
979.69631
978.5784513
985.2584047
0
0
0
0
0
0
0
0
0
0
1001.284851
980.0315375
582.9209177
919.5659107
762.6933156
767.6192699
1168.759866
753.1106319
880.6651632
979.9770935
983.2735191
979.4280596
965.1476869
1003.467943
980.5885994
969.7631435
952.1874874
971.0049866
976.8170262
969.2244544
966.6224775
970.6117226
983.8324198
985.5199198
965.6238722
993.046004
996.1176747
0
1056.954057
0
0
0
0
0
1661.964812
0
1070.572193
1239.383223
918.3349467
1019.643487
620.4994035
1120.898029
732.649188
1075.644237
1042.681905
985.9427771
979.1764163
983.0898393
1010.642695
967.4950139
972.8965076
984.598623
947.7065875
960.328514
953.3181061
947.0840428
953.7265784
953.5425785
974.398244
985.781652
972.8117169
976.7912308
993.2315833
967.7880921
975.9453172
0
1125.267445
0
0
0
0
0
0
0
0
1212.64874
1142.996731
1120.679243
1005.97188
731.9568817
912.0157421
1029.380477
992.2358063
993.8359253
986.7738693
975.5930307
978.2466813
970.3649854
956.5007497
962.9119532
971.9086897
946.7075299
945.8193084
938.7572367
935.4710515
944.9922273
941.7910854
948.1610419
981.8644818
964.9570118
977.161964
972.0190471
987.9085083
977.9782238
0
0
0
0
671.1208667
0
0
0
1307.598333
1194.973956
1213.935743
1043.633867
857.0051861
778.8773252
779.3556352
1052.480637
999.9715312
986.1146119
967.3137203
987.9052529
969.6704748
966.7956274
966.3996176
933.3044966
951.8767527
949.1172243
935.3476641
921.5155441
948.4088258
961.7690981
949.2424706
968.4925598
952.7165589
973.3356797
967.3997324
985.4829207
981.4112724
986.600143
0
0
0
0
0
0
0
0
944.4262212
859.3317473
798.842609
1075.211292
642.1767026
914.4129602
890.2879679
1001.288189
988.415035
1001.34406
954.1310229
990.3186589
986.2530928
978.0209871
949.6182546
935.2537892
945.8768567
937.760372
928.3199207
914.4155374
943.5666227
927.1750786
931.1957811
948.7725573
958.9839199
955.5868903
971.2372358
972.1974759
990.6278957
983.4074683
990.6759501
0
0
0
0
0
0
0
992.4367886
631.5645808
887.0177382
989.5992062
1034.343924
813.6064568
897.8316892
990.9406153
995.5020578
984.8357931
947.5258301
946.9522761
963.9429412
955.0362829
944.8324919
919.2062753
926.0200713
915.440337
916.4799982
907.605069
930.8924147
919.3757357
925.5565417
931.1579231
962.5841059
965.6181972
973.067325
975.3122028
971.422013
987.0517006
982.102872
0
0
0
1675.447099
1210.550531
0
0
0
0
889.3947216
869.4974038
668.739983
1078.7003
1006.499742
987.1216757
965.7764149
972.1438388
953.6985706
964.1041516
960.5702241
947.6852482
929.8745
916.5947073
924.7714847
901.4052286
894.0785582
893.5538323
898.9539273
910.8030996
918.0529447
937.1096302
943.986661
967.6261403
977.9744182
982.9008382
964.5406243
989.6178484
994.7024124
986.1393503
1056.632518
0
0
0
0
0
0
575.791398
598.6459602
961.6706223
794.2006917
811.6507055
988.4286612
979.7272753
980.3445467
990.9390946
953.4801164
962.8408722
935.2310032
936.2112968
918.7368178
910.8862712
897.1822503
886.3646372
875.1369458
875.5070062
868.8720501
891.1606808
908.3452555
929.7608745
931.9318199
934.811944
952.4292751
966.4583914
976.9568682
968.0863046
972.3630891
993.7251991
1556.120347
1177.254365
0
0
0
0
1005.421162
1429.980942
690.5967528
981.685071
665.0971619
885.2313811
980.7777736
986.8833904
993.575528
956.1775937
960.4445652
950.6789609
935.4900871
933.414393
918.1781239
900.4264791
883.5187243
861.7304261
858.9024102
855.9074278
860.0399073
881.9015954
901.9471544
913.7592244
936.4421506
938.6722894
950.7604808
961.4834345
975.5417119
964.8185245
980.1900554
1005.736669
0
0
0
0
0
0
886.3547985
0
824.717922
981.5356083
1055.7799
862.1495099
988.7198679
982.9013326
957.1114434
960.2665887
959.3329308
932.2805045
945.6234459
921.5554542
906.0027498
887.8915981
870.894141
852.6373928
847.3040167
852.6625499
856.2047807
871.8978423
896.1251232
911.773414
937.560883
965.0743771
957.6116611
978.9763304
979.7388208
974.480428
984.1525266
1001.571259
0
0
0
0
0
0
1453.008017
1086.202056
877.7168475
878.8568396
1062.32116
1059.853213
997.0227023
979.4923839
994.8994451
973.2949577
945.7924224
971.5645735
945.3726569
940.6534598
920.0672078
898.5696515
867.5036776
857.9302383
846.1842422
841.847803
862.3895811
874.9154205
890.7969006
915.5193512
946.6086365
964.8840495
955.738043
946.5403337
976.7356199
1002.298571
985.199151
979.3768453
0
0
0
0
0
0
1013.231668
1232.36385
1146.023868
892.4556367
970.9126814
1015.130366
977.9505063
985.8197116
975.117592
968.1375043
951.0303711
944.02489
943.2638861
917.8376383
915.5205565
900.4876432
876.6454683
863.9713188
852.5068037
853.8822922
865.1954489
886.1550653
902.9708032
904.5391978
926.8619619
941.1727675
954.6620286
941.131507
970.3054151
968.166086
988.3732935
995.3273749
0
0
0
0
0
0
696.3985862
689.76884
1248.615505
1034.419352
918.532671
1131.976595
978.0353338
970.5947445
983.8411885
981.2117929
956.7744747
948.3984411
949.5291912
936.5493126
917.7911166
913.0579223
884.554706
881.3963165
866.7708393
867.9814838
878.9405687
898.0127041
915.07741
913.4636679
941.1485997
957.9510324
961.9147903
975.1398387
980.5760509
995.2082845
1004.094094
999.1327984
0
0
0
0
1096.726025
0
1287.584842
767.9149987
834.219416
757.8457184
1186.710051
1094.886948
1007.006131
984.3887685
985.9646224
976.6458829
967.0665631
963.0287867
958.8793987
937.895244
937.5760638
916.4429739
910.9723872
900.3744008
898.3967015
892.050654
910.2166226
922.359932
921.1738381
930.0389308
934.3643408
962.4122127
971.6970834
970.5132096
972.2665865
986.1652128
991.1831909
998.1312254
0
0
0
0
1001.250865
861.5729858
709.1820641
965.1738891
866.1756561
1054.969653
835.4438191
852.6226353
1114.911061
981.8606145
985.4783125
985.2876295
952.250215
950.9009658
957.0143814
957.6567922
958.1848683
938.6590486
937.5688141
925.813977
915.0602472
913.5229875
919.3456993
940.1892721
938.0399009
938.1929274
958.8763929
964.3632728
970.5983619
975.7770593
984.918807
1008.123524
974.2459922
0
0
0
0
0
0
0
686.9466805
1063.986748
873.0698614
1095.552465
919.475364
991.198651
911.8826201
999.4737374
991.5744041
996.8926035
977.0933053
950.7974092
940.4819657
948.5967026
958.0799314
940.5176227
939.2851413
934.8045448
936.548711
941.582245
927.6328977
951.2580075
964.4230291
942.8784708
964.2245777
973.3697166
978.3950488
990.7369875
975.7627624
984.7675032
990.7311567
0
0
0
2341.17896
0
0
1024.62886
659.8341833
0
882.3668154
937.8549325
1110.066453
911.2286428
820.6081088
1050.690923
985.0701603
1001.356885
997.0771078
941.20305
958.7606533
971.4121833
957.7353296
952.4258392
944.0679393
931.415396
941.4321915
952.7967344
939.0590242
952.3882869
946.5757267
943.5950827
954.9000171
976.8868914
983.8182808
998.5562659
975.9889017
982.8913294
0
0
0
0
2402.546499
1779.277055
0
0
779.1657068
1053.401526
1321.885379
1171.560269
882.4352281
922.21995
1092.417274
954.9082836
995.2312537
995.397001
1000.605019
956.9543802
969.2244377
957.9051348
994.561237
963.1871848
973.3255994
939.2288223
983.1861528
949.8773335
950.376932
951.7972227
956.7020591
957.6767856
967.4781887
979.3027349
980.1422276
985.8317014
987.2416021
998.8701419
0
0
0
0
0
2418.52048
0
0
913.372906
1120.365995
885.9701099
842.1183931
1057.185109
801.5167038
1060.782389
1173.908013
1001.115134
1005.608659
994.2068205
967.5524771
977.2990404
964.7875974
969.5590625
958.9489701
956.6247415
947.088593
950.403632
944.1533904
952.0958425
963.4811155
965.7487179
963.2384553
993.6372375
979.8222759
972.8621503
997.3387671
986.5355699
0
0
0
0
1101.394169
0
0
776.3057255
531.9326784
1843.293219
1032.178612
1081.314067
1255.839562
1183.547017
1054.49521
1202.869636
892.8701357
836.4510077
990.5137887
976.6770662
987.6706521
980.2232865
959.9772718
970.8922467
951.7046097
970.1276382
972.0696973
968.5739699
957.6080242
968.8835088
985.9653555
977.5666294
975.0586253
986.754164
987.9995863
998.2694744
0
0
0
1241.29461
1144.87005
688.893811
830.5358648
550.7111567
0
964.7173296
1100.734532
1059.783943
1009.234774
750.1281993
1262.612138
910.3844499
816.7116604
1115.787203
948.6180634
999.6226424
1001.484265
980.3814039
985.9092794
972.9291511
994.018312
974.42589
964.959701
974.7380077
989.1930056
982.8028686
984.0713389
979.2507429
974.5786853
984.8490051
995.4968021
0
0
0
869.3166624
0
1122.821351
0
1014.83872
0
0
1296.750501
1214.596491
648.0815288
947.3238212
0
371.9614137
859.2395602
835.8343808
663.0754824
929.3265145
1056.429282
985.2487265
990.7388578
984.1248226
992.3669417
990.2869615
984.5733775
999.8915266
990.7081622
988.4012382
1000.120399
984.6907515
985.6681608
834.002528
0
0
0
1192.922483
824.6575783
891.3818054
0
1405.4096
0
0
684.9215958
1049.747294
1196.492058
0
605.1162255
743.5763994
925.7358989
806.5880187
709.7642499
683.3964642
788.6503957
799.5925482
996.3721708
1000.42063
997.2631172
999.9408124
997.4679311
1001.057493
997.284217
993.7891059
992.0934217
1364.058851
814.3108412
1103.221186
0
0
0
518.662381
0
0
0
1126.176579
0
0
0
548.2031489
549.4778361
871.5175279
857.5646766
660.4432156
849.7994543
516.0099807
792.938284
683.5620752
959.1084507
1286.055266
1054.031285
1036.886534
901.2689525
1685.091664
1314.932442
0
720.3992648
975.1769425
647.1793198
0
881.8320703
1134.653041
0
0
0
1190.341253
888.8294748
929.290201
1044.24943
887.7676329
986.8895503
1258.661828
1168.987097
824.9004986
1087.426986
927.7510768
779.5783034
1210.942624
1421.844344
996.5276475
1029.655887
1019.826939
953.2636343
994.7297559
1056.011178
0
850.3861204
744.4115377
788.3844956
1185.058073
927.086324
0
1368.053744
823.6608621
904.5024048
769.9073676
915.5159624
899.1957327
917.651547
1220.456067
655.040351
978.0611225
1114.164612
951.7546839
1164.103778
1002.831027
678.1597925
874.9318172
1035.81067
980.159186
950.2705039
896.6429499
1190.384456
571.6160216
993.6640971
960.7866843
815.2230907
1026.326254
1124.683574
780.2633042
1149.466023
1062.829205
1003.270876
723.2322297
1085.120396
827.4498686
1088.402214
948.728761
519.0873569
0
0
778.7802493
933.7648046
0
919.6167774
575.0391347
786.3885122
820.5155246
683.1325395
987.4945724
615.0547913
1060.366119
1005.561097
0
0
0
693.6039258
1025.109426
761.7673872
1284.867836
1188.373929
720.103191
972.5440671
886.9459429
821.543863
682.036953
1062.884323
852.7409014
1033.477645
984.8990487
773.4422109
930.2337204
765.5187861
1057.899102
1200.221003
595.1197504
848.7298037
752.3918559
0
515.8187525
1024.036486
826.1769005
845.7713657
1006.136207
776.945878
0
991.0203899
701.5765473
0
0
0
0
955.5638421
912.536609
997.492471
0
0
0
889.156064
0
0
1162.565978
950.6500489
963.989932
779.2328791
0
0
860.8565117
793.3647966
869.4682649
855.7600447
1224.176463
824.9227881
925.0115608
881.6826967
988.273904
927.2809771
974.1255668
1019.405736
1119.28927
880.2905419
730.7121497
0
0
0
435.1592768
874.5652233
810.1395541
0
0
490.8536472
695.0594633
451.1092922
835.0332525
825.9598161
0
998.956677
0
1076.69409
1188.979122
1240.965872
940.6336772
0
971.1725438
917.6554089
632.7819903
1022.350313
893.7256756
890.1745521
1356.299173
900.5467415
673.0378935
936.5100229
991.6062426
540.4258606
762.0331081
750.3662437
913.6183455
975.8491286
1013.101732
1023.245632
724.3293338
656.3564066
766.6233478
682.0706065
867.6879727
732.8857645
577.4792818
707.280229
765.6496398
483.8678224
0
859.7473153
668.3148498
772.2232284
0
0
644.359191
1137.12196
0
0
0
1013.085039
1170.655443
1091.898865
797.7270391
0
0
1239.676658
1016.991915
882.1446764
952.6684351
836.3253388
487.8728689
0
688.3231285
461.2516251
919.4366783
602.5833769
701.596994
625.3927685
1046.905419
747.7637284
951.0405278
842.1898849
833.1745379
0
0
570.5888325
872.6638353
791.9984096
718.096724
544.136738
0
808.6205835
1225.648455
701.5044862
0
768.6790419
0
883.4609286
497.873998
0
0
1160.236229
1252.820174
0
0
0
869.4855476
751.1388256
848.7958757
753.363871
889.5521971
0
0
0
0
0
1088.230501
0
797.5066775
659.4303703
974.4994576
0
0
0
587.9421794
711.6447141
0
1273.413607
0
655.4230681
804.7161951
648.5912279
610.0153791
517.6917644
0
908.2838682
986.4174255
841.7912347
0
0
0
0
0
0
0
0
1482.878993
548.5269571
737.0369376
910.7605982
1044.163769
1167.726266
890.769139
681.6184599
711.3203006
827.3044802
1139.030824
0
941.8039207
0
0
0
0
0
0
1087.658984
471.7724931
0
0
0
0
0
0
0
0
806.8899963
0
0
0
0
372.8775819
1374.78896
810.1706356
898.3485837
0
0
1246.578506
0
1033.026229
777.9578514
1286.935389
1170.904053
732.6457616
1309.889941
0
463.4008485
694.7057102
799.4156127
935.3137391
820.7190163
871.7699267
0
0
0
0
522.5335826
735.22877
0
856.7062409
0
753.9394152
577.0128891
830.1110048
569.8738678
843.7933784
822.5690129
676.760863
701.8308975
549.7879112
579.6841757
734.4050611
978.2359905
766.8208788
858.4423615
936.6779061
614.1023126
756.1197329
574.6857877
709.7932153
0
0
629.7714619
0
0
876.1606989
883.1213718
908.9721367
884.6977657
628.6562801
0
855.2140695
837.6422319
0
0
0
0
467.3724446
759.0435244
498.3056993
764.1385549
1084.225369
784.4174095
802.4367231
776.2841986
713.294313
780.580938
820.5360222
934.2856516
1149.468179
856.9666639
969.9023418
711.8280587
516.019558
584.8693265
661.4586594
632.9763782
660.5615352
987.1376697
0
713.5470286
649.4310435
0
0
799.4549165
0
765.8131359
0
0
515.8596791
1054.026979
0
594.216131
595.4684615
973.7407028
0
0
817.8776394
559.0036878
523.5649803
905.3012458
806.6784819
762.9475711
964.2859596
654.0334253
558.9746197
945.9904397
525.2527315
926.1081485
0
793.7979015
733.8592842
690.7101236
566.9161485
608.4044101
1116.82903
817.4429888
595.5153877
789.9250423
591.9425919
1070.547976
592.4758328
578.340172
837.4932553
578.1264314
962.3489533
776.5370951
1006.260617
907.4186114
0
0
503.2551583
769.5153099
0
553.9230152
866.5563245
745.2604797
553.1605799
0
476.2478021
597.4436055
693.8277569
710.8100594
824.4465867
702.9857726
556.4682416
546.7460667
450.7702337
0
0
0
589.3623085
782.2333133
907.8187161
911.494289
0
0
542.9032967
0
807.618092
526.1644306
0
1152.412321
0
0
924.8239478
892.6370044
567.2183194
1204.488768
1053.104943
613.4262294
815.8665062
928.7062551
880.8438474
906.0934161
909.4051524
760.7075206
931.6598923
531.253454
645.9339763
764.6474158
629.4074306
527.3157469
0
788.7987779
1039.610764
961.4006647
737.4451395
806.3188858
378.3599432
695.120923
0
0
854.4376852
0
0
0
0
0
777.8798296
689.7029673
0
0
0
1139.809769
1025.453951
401.9602735
900.083812
0
1054.786052
1288.813447
915.4134893
1041.497955
1076.264355
876.0701534
1076.357334
939.116912
914.6361444
900.7866658
1182.363108
954.3531646
1289.981338
994.53541
0
0
0
849.5990001
789.1483864
0
764.1088133
679.0945214
0
821.8602435
831.4491908
721.8329062
0
0
0
0
938.0758176
1228.290329
968.7023926
702.8149605
569.7573691
615.1660124
1077.300564
843.8990828
710.483867
828.9213086
912.6763432
1188.402421
1139.439913
855.4964665
0
0
1118.878373
1443.875803
626.3969322
1151.940151
0
1064.345776
1295.404212
918.4714655
782.2425202
0
0
0
901.3774408
853.1490943
854.5005474
1376.682574
1087.874306
871.1170881
772.6573157
608.2589456
750.6906389
853.1959323
624.4556252
912.8174033
883.4231625
997.5084919
993.4114747
983.3201105
990.6729664
974.5381481
976.2973111
991.2188186
989.9641898
994.6702144
923.6940215
633.6584157
0
0
0
767.1041082
1261.270326
938.7040393
0
0
0
0
893.7522623
1277.809358
996.0435227
872.6756265
1047.084836
752.5429408
1243.744837
1149.894473
793.4697553
898.9704851
741.0678402
711.6581527
991.0107691
1010.190129
1002.835146
989.3061624
974.9616603
957.4709624
974.7524012
975.2898224
986.675129
982.3905369
986.4996023
997.9890232
0
0
0
0
860.6815722
1211.23153
736.0499251
0
0
0
935.2431388
1584.129673