/*--------------------------------*- C++ -*----------------------------------*\
| =========                 |                                                 |
| \\      /  F ield         | OpenFOAM: The Open Source CFD Toolbox           |
|  \\    /   O peration     | Version:  v1706                                 |
|   \\  /    A nd           | Web:      www.OpenFOAM.com                      |
|    \\/     M anipulation  |                                                 |
\*---------------------------------------------------------------------------*/
FoamFile
{
    version     2.0;
    format      ascii;
    class       volVectorField;
    location    "3.989";
    object      U_mixture;
}
// * * * * * * * * * * * * * * * * * * * * * * * * * * * * * * * * * * * * * //

dimensions      [0 1 -1 0 0 0 0];


internalField   nonuniform List<vector> 
50792
(
(1512.343281 -417.2160728 -463.3049081)
(2199.585932 -262.2669897 -348.5137095)
(2011.434615 -310.4403252 -286.1966011)
(4264.800074 -156.6501787 -95.00133994)
(3827.535917 -346.7367658 -125.6575088)
(3242.175075 -185.0363784 -162.13357)
(3447.003512 -138.0707165 -113.0032267)
(4591.518526 -146.9107961 -88.9897355)
(4343.188354 -210.6823128 -160.0589994)
(4956.44577 -152.0017312 -101.8310339)
(4243.356976 -243.5531537 -191.545989)
(4963.223252 -140.9769433 -84.61027578)
(3849.604461 -237.4302007 -200.5195896)
(4696.897373 -334.1619383 -214.3000097)
(4653.818583 -238.5450317 -129.728093)
(4024.440741 -194.6594055 -140.6711808)
(5485.436943 -182.7185123 -91.17586553)
(5590.091289 -229.7399741 -104.1796248)
(5315.175806 -222.3568996 -151.2182181)
(5616.839846 -134.1413743 -104.1912482)
(4918.768149 -228.2751034 -185.3400316)
(4932.134463 -219.1274674 -177.4929356)
(5590.434281 -244.5042687 -177.8764001)
(5387.983814 -360.7614906 -210.8531468)
(4818.109681 -242.6878994 -199.7963699)
(5834.570882 -162.3148525 -134.4767065)
(4673.22417 -151.7478143 -152.2135232)
(4403.913354 -187.2204045 -181.8768835)
(5318.076688 -278.5218474 -106.2415476)
(5141.082233 -238.8702606 -155.1506267)
(4725.395463 -280.9300591 -239.5865675)
(5316.16521 -199.8099055 -201.3306474)
(5656.404696 -255.5488871 -156.1593708)
(5304.318124 -277.9764364 -174.6721332)
(5164.622618 -236.7357815 -183.2861487)
(5328.274866 -212.3154492 -203.6777512)
(4878.475019 -191.3347727 -178.8519946)
(5351.052322 -189.8458799 -136.6761479)
(5353.989115 -191.088274 -131.2086025)
(5107.199653 -190.2673438 -121.6599279)
(4881.283786 -150.7754615 -181.6115025)
(4824.732431 -110.2138929 -155.7056808)
(643.1528789 -324.6318772 -368.5056273)
(6055.714491 56.75105684 -8.215008002)
(6032.83856 47.30386598 22.21200852)
(5288.470778 108.4100081 -114.7967652)
(3980.803606 -152.8477462 -164.7676514)
(4506.377586 -74.22287364 -52.43248382)
(4857.538564 -22.00528401 -120.3805914)
(4436.935325 -83.24440161 -49.36553325)
(5036.927645 -82.33204639 -103.8031304)
(4742.50964 -70.13809322 -82.13779933)
(5269.325941 -81.32835583 -44.41410273)
(4982.451656 17.59608977 -61.20841343)
(5251.194747 -110.0756962 -96.28582606)
(4872.38564 -119.3427821 -165.1745315)
(4494.561789 -142.0373577 -123.679394)
(4638.924379 -48.43901 -137.4030805)
(5273.824459 10.01291412 -138.2504521)
(5067.344571 44.4494276 -90.92797654)
(4925.713172 -24.50643326 -152.3091111)
(4877.18926 -55.96992659 -107.7407261)
(4911.961841 -83.17285063 -81.91182868)
(4816.117983 -69.65107059 -76.90964073)
(4570.392474 -146.2174681 -86.40479603)
(4460.436994 -111.5953747 -104.8747105)
(4158.403679 -77.28545435 -124.3136919)
(4780.211648 -28.65189557 -135.6830847)
(4833.237933 -75.08870891 -130.459563)
(4626.180386 -144.8531972 -79.46490102)
(4566.13352 -57.98773861 -138.0270271)
(4527.009549 -135.5042696 -178.4362327)
(4359.904087 -62.12680509 -107.6690911)
(4435.790036 -198.129075 -89.06971909)
(4536.27038 -124.2647779 -147.9779793)
(4941.66423 -113.8501802 -87.98488403)
(4974.27164 -34.99522536 -73.11785098)
(4255.116176 -67.68825305 -137.8942838)
(4766.670882 -103.5450335 -113.9203479)
(3798.497287 -74.52370001 -196.8890026)
(4126.526073 -150.4077041 -138.4008131)
(4217.862484 -102.5482095 -162.321552)
(5414.627872 -88.66963422 -55.26896269)
(5631.797941 -105.4114912 -17.03637754)
(1290.098493 -633.5425615 -393.0678673)
(6094.225894 -52.44182761 -53.64517415)
(5480.737649 -49.72308546 -115.2300823)
(5162.251918 24.99322813 -148.0671621)
(5327.134449 -46.55720544 -60.0653479)
(5062.139554 -71.00012842 -23.44773153)
(3836.963621 -42.78743842 -87.54775351)
(5448.218379 15.20506193 -38.6134018)
(5506.511531 31.58264051 -54.02362438)
(4750.999252 -14.02040643 -138.0275273)
(4663.201452 -116.7530141 -210.4189863)
(5654.928385 -48.66657495 -67.99312671)
(4300.718857 -33.81029591 -222.312703)
(4810.387284 -123.2237831 -128.4837544)
(4698.646607 -64.91476312 -184.4844282)
(5540.823806 -9.597643997 -57.68990183)
(5118.195705 -25.29642375 -115.2425936)
(4457.459043 -13.8309354 -76.25529516)
(4381.128942 40.02258235 -110.9793181)
(4506.826801 35.7722619 -117.6663912)
(4571.925824 62.28825086 -119.3462672)
(4922.429779 14.47850193 -140.4834088)
(4276.309333 -57.98799653 -102.9974318)
(4242.57076 -35.67749803 -224.080726)
(5057.981093 -72.25545644 -158.4907541)
(4489.311598 -70.83694867 -155.7295302)
(4623.582069 -162.8279795 -188.8395254)
(5417.867337 -144.285638 -29.41662691)
(4458.309383 -134.3239306 -102.9874167)
(4516.104062 -185.9487233 -161.7266902)
(4745.588848 -92.59305447 -173.9293259)
(4458.324833 -55.65045816 -97.28736194)
(4797.527294 2.957039174 -85.41225973)
(4453.128426 1.95210885 -149.225712)
(4316.463646 5.285189199 -222.479067)
(4533.741355 -65.12051497 -182.0864938)
(4399.63589 -76.67459532 -141.2491518)
(4015.316729 -9.776018844 -189.8996424)
(3904.243063 -24.55848044 -159.1301357)
(4448.048634 -150.5321553 -129.6376243)
(4499.840487 -107.4094366 -153.45405)
(4683.259928 -134.5364008 -188.9123956)
(1124.521056 -525.2471306 -447.5002227)
(3528.326217 -28.79501464 -206.6569221)
(4819.464312 1.052227788 -95.69770116)
(5161.714832 -205.8720522 -108.2966918)
(4809.373344 -158.4909831 -77.91222506)
(5913.457198 -48.15233962 24.93670117)
(5307.683071 -178.7485928 48.60605654)
(5660.172477 -53.19947556 8.489345456)
(5067.336932 -110.8628528 -88.47207878)
(4553.486154 -53.41380699 -102.5458758)
(4011.203396 -68.30472632 -197.4739724)
(3939.635239 -73.03913306 -173.5356112)
(4034.716826 21.64508167 -241.4473815)
(5256.21047 -95.39005361 -145.8960995)
(4579.019244 80.19585648 -218.8776312)
(3922.11639 -50.08835565 -176.5366224)
(3909.96325 -52.41791503 -206.1252194)
(4216.040357 -78.44911578 -137.1046858)
(4707.582502 -103.901829 -103.473513)
(3466.409122 72.00226943 -63.87427873)
(3587.065032 63.55214747 -174.4194829)
(3752.39779 -84.07895318 -241.8672807)
(4694.441591 -106.0961639 -107.4510452)
(3842.638116 -92.85741531 -171.8744507)
(3476.677322 -20.66034713 -282.3453816)
(4237.358763 -181.7657181 -177.599604)
(4293.286569 -128.4707873 -168.2118025)
(4340.334833 -65.78003174 -102.2672509)
(3800.661504 -58.19095419 -223.272778)
(3528.023055 -26.74128468 -103.8687353)
(3962.328348 -34.0330797 -185.3638022)
(3732.490756 -16.58082061 -120.2665231)
(4243.086803 81.35212647 -132.5971682)
(4700.594571 -61.03647695 -79.4531613)
(4373.909381 -26.22165442 -134.5122035)
(4823.42006 32.77942575 -88.00389474)
(4818.511399 -77.57851433 -85.28176919)
(4630.558853 22.19951337 -118.9861547)
(3968.156632 -40.66672012 -94.87340228)
(4694.411471 -74.23835245 -156.5235618)
(4911.160543 -99.86731128 -128.5396996)
(5029.435932 -115.8522387 -141.0517013)
(1116.75272 -447.1194788 -586.1209932)
(2550.483774 15.79204406 -271.9957459)
(5167.647443 -36.26465192 -139.8652001)
(4985.281478 -155.6419689 -117.0196489)
(5660.661786 -130.5599287 -4.128710334)
(5471.720635 -48.27764837 -44.9672568)
(3799.64679 -63.05699895 -202.9631306)
(5219.9127 -55.64552271 -94.79193212)
(4853.96141 21.92964173 -126.4742949)
(5088.99585 -152.6099344 -108.11016)
(4846.876104 -123.8154831 -117.0129407)
(5746.16134 -32.67540627 -60.66434131)
(4899.428486 -12.90492102 -36.43189978)
(5229.942893 -33.07101947 -69.24066884)
(4793.284841 -25.67514302 -93.12863569)
(4764.186701 42.15358223 -87.28964055)
(4351.860752 -68.86069453 -150.4523029)
(4214.855667 -73.19033039 -108.7404566)
(3969.118763 -24.27544854 -148.2702413)
(4002.614234 143.6768769 -111.2503229)
(4437.933333 3.801286329 -65.23538557)
(3505.644048 -40.00424722 -134.642473)
(3582.363679 -2.06190362 -135.6913944)
(4308.070022 -195.4546643 -196.6795713)
(3790.47621 -69.54184937 -180.3218623)
(3746.837928 13.36590865 -275.1842982)
(3876.694291 113.7913752 -203.8107746)
(4381.098014 -49.85947313 -133.6757148)
(4075.833626 -128.0843291 -143.7919762)
(3481.165402 -95.83000693 -173.1390034)
(3653.010888 -47.20175683 -223.5468688)
(4626.223481 -186.9286841 -182.2434325)
(3970.465383 -60.24413794 -130.3105565)
(4670.873244 -96.40410602 -111.1432067)
(4526.046248 4.899817099 -121.9796873)
(4463.363021 -24.38152714 -90.38824838)
(4562.205336 -93.47275997 -127.8673044)
(4104.284603 -45.48441059 -145.0018049)
(3825.851095 -10.39136119 -87.87057478)
(4575.045759 -57.18387541 -176.2783751)
(4260.85946 -177.2761076 -182.0845848)
(4755.449237 -110.4992993 -240.0721151)
(698.5043256 -252.6416782 -358.8811642)
(5362.914306 -21.14499233 -25.61223378)
(3510.904654 -46.83448488 -121.9583103)
(5047.73182 -51.82942389 54.74329151)
(4680.364808 -86.47935694 -119.706841)
(5265.071172 -92.59655892 -132.274107)
(5380.192706 -65.17496355 1.800179543)
(4734.126357 -150.3697468 -93.15303504)
(4705.204722 -14.84624638 -90.16795387)
(5450.081167 56.54185321 -125.505659)
(5409.299574 33.31845687 -68.97915027)
(4071.40398 -123.4075836 -284.5600196)
(5088.310903 21.84908486 -76.91057478)
(4690.958538 -176.6887949 -115.5608259)
(5234.886709 20.40075709 -48.00920389)
(4909.798432 -23.00453956 -171.0391612)
(5212.460611 69.06278767 -115.6242468)
(5536.302298 10.94926678 -25.4783804)
(4550.380003 -15.3272744 -98.91111611)
(4587.663204 -123.1835241 -99.23035496)
(4689.619511 30.42250024 -47.00809638)
(4042.578964 -36.00122579 -197.883575)
(3743.804678 -1.098332849 -114.8280883)
(3683.706043 -8.992255337 -133.5144467)
(4810.984681 37.63088704 -147.0938642)
(4577.5477 99.05121842 -125.4426377)
(4642.795179 92.04218412 -56.39120601)
(4009.974263 47.10661974 -196.9635999)
(3822.28273 -28.73515841 -212.7084208)
(4786.338357 -160.9458375 -147.4772003)
(3700.109708 -266.811932 -185.1423156)
(4574.399191 -28.90698707 -147.9200536)
(3974.336727 -37.63785979 -149.7639166)
(4432.36712 72.30358962 -138.278695)
(4502.937084 -67.93705954 -153.1239071)
(4014.279373 -2.199271383 -160.8430593)
(4798.137527 -148.1722784 -83.21591188)
(4594.171925 -130.7091957 -81.99067061)
(4841.961902 8.880949943 -158.3972232)
(4551.857295 -166.6954901 -144.8155748)
(4561.898148 -159.5872159 -206.0851695)
(5342.726316 -63.21355147 -162.4463779)
(469.2205617 -250.1916698 -399.1317161)
(6054.190161 35.7123305 5.577665726)
(5443.557947 25.24030673 -70.42235672)
(6047.523893 28.66153919 12.85997779)
(6053.791045 -0.7637211009 20.38922339)
(5946.519037 -22.96988446 6.109769659)
(4215.152521 -84.29704278 -138.3572735)
(4588.178212 -88.52255691 -120.2562861)
(4972.743583 96.69819329 -83.67731295)
(5351.242056 50.0920761 -68.65456549)
(5084.298172 -29.62046424 -109.0379158)
(4885.904502 77.1351588 -155.2174876)
(4401.403419 -5.027730916 -218.3355712)
(5079.161539 13.59239739 -73.69974459)
(5377.123906 93.39163297 -61.76208991)
(5485.785954 -28.70101506 -37.42735092)
(4534.422773 -97.34921183 -88.38765136)
(4938.475893 -35.10717868 -117.4441809)
(4848.395051 -68.88359303 -80.77801451)
(4285.631077 -243.3001425 -127.8397888)
(4431.820616 11.93005783 -160.4074799)
(3754.121292 15.53865449 -136.9395066)
(3902.558613 -68.93785289 -242.806371)
(4575.742275 9.686674903 -152.2668537)
(3961.688095 102.195829 -128.4019431)
(3798.965047 55.42223276 -155.2672354)
(4340.264377 29.41991791 -98.26333424)
(4176.26335 29.31827465 -166.7901125)
(4932.761871 -16.46190494 -132.4330674)
(4770.932682 20.09750721 -175.082206)
(3928.620271 -9.384923862 -204.9970817)
(4281.544774 -60.25096401 -154.2453455)
(4479.71824 -53.3871453 -242.4718996)
(4844.896133 25.15543557 -81.64219693)
(4573.63048 53.15548827 -122.5068178)
(5185.995528 -32.06147244 -139.348155)
(5103.07381 -102.1027015 -40.62306425)
(4504.689785 -136.2558549 -85.2163484)
(4625.414475 -17.82199011 -105.6729782)
(4159.082554 -92.18737246 -169.3980649)
(4482.217481 -48.61976303 -142.4209412)
(5651.902236 32.83650741 -82.15522825)
(466.580954 -202.2734931 -410.4647214)
(5057.299945 -168.1457696 -54.25515457)
(6084.226797 88.73982885 -42.59500055)
(6019.252173 71.32586237 -27.41677871)
(5985.703781 46.44445958 -16.707382)
(5381.684494 12.79457025 -78.6367397)
(4219.318898 35.36251506 -262.1202175)
(4777.187443 32.9942165 -76.93075211)
(5276.73023 28.48863008 -169.9821154)
(4503.871618 -79.55063586 -186.618884)
(4995.622399 58.63337059 -172.4323168)
(5500.034756 24.46054386 -43.55954218)
(5634.278163 40.64810013 -45.6469139)
(5153.674205 66.7038985 -127.5757984)
(5391.500896 63.87565072 -102.2746838)
(4641.0558 -7.568391613 -179.2826313)
(4111.419409 -15.17895243 -154.5886683)
(4574.731368 -83.39879394 -175.0256533)
(4718.992169 -183.8828646 -119.2475688)
(4265.759441 -200.6729654 -162.2493219)
(4932.750984 13.98032896 -78.94935873)
(4499.033776 55.39109632 -164.1188814)
(4345.324375 -0.6258921806 -166.2259207)
(4862.493164 51.01585286 -63.65573771)
(4250.190694 4.460942641 -98.57136913)
(4051.445107 -7.929375217 -134.4707392)
(4142.391232 -7.925995166 -95.93271008)
(4850.133907 -117.7061521 -108.162939)
(4735.64407 -82.98103842 -90.39612571)
(4676.062747 -121.6854108 -110.4109083)
(4524.537205 62.55217747 -169.8700008)
(4835.219247 26.63199387 -156.972455)
(5009.790505 -29.29506076 -147.0289241)
(4832.752755 -33.52853407 -180.2415811)
(4738.192145 -21.21389267 -206.0928613)
(5158.558804 70.06285678 -84.00809268)
(4069.623575 -70.27333184 -93.41270203)
(3850.806783 -93.50083177 -159.4540151)
(4173.553286 8.060755216 -194.8631249)
(4649.459437 -23.43386986 -172.3703491)
(4617.992945 -13.82233226 -113.9627971)
(4870.275405 21.82663128 -129.8910902)
(47.3803401 -161.9797411 -498.4466201)
(3631.858836 -12.80831719 -92.42146893)
(3625.277206 -59.80385908 -59.08258862)
(4670.172061 41.53993863 -52.12391837)
(4131.141357 87.54558974 -98.53629116)
(4491.737539 78.42865228 -164.9627169)
(5227.638514 43.66012852 -81.71067578)
(4724.74604 -83.16246299 -187.2977111)
(4903.579457 -55.41294987 -172.9172018)
(4985.214247 22.66600503 -130.1190988)
(5381.553213 50.21512725 -89.88402398)
(5057.214843 -21.02102106 -163.9874821)
(5630.014109 -28.21118493 -82.41548195)
(4869.415864 -7.884634073 -140.8152013)
(5019.176494 -123.2890059 -154.4239067)
(4905.425734 6.810046525 -176.941472)
(4862.106132 55.31899156 -137.7055892)
(5171.229613 81.45601962 -118.0098562)
(4554.11083 41.07094822 -93.83109744)
(4377.489727 2.257207355 -177.1858936)
(4898.051579 -59.44186115 -116.0580269)
(3702.780019 -33.85265144 -261.2183225)
(4998.437095 38.39250671 -195.8008942)
(4630.881885 160.7883277 -131.6858684)
(4161.651823 -22.98823298 -99.39980845)
(3863.956254 -108.5838357 -150.0922872)
(4529.770886 -27.54946525 -128.0403264)
(4149.636349 44.02580324 -82.93355867)
(4481.350911 -48.89096628 -130.8991961)
(3739.536417 -182.0388134 -180.694451)
(3491.849119 -21.07848967 -73.18081587)
(3924.148509 22.05983551 -133.3000164)
(3978.185273 21.15649778 -223.406396)
(4775.612334 -37.80213103 -140.6895874)
(4302.614502 65.19627453 -167.3784584)
(4850.10165 69.81743479 -78.78691556)
(3833.449825 -28.90032286 -97.88008883)
(3665.418931 -66.43524349 -169.4842149)
(4305.973213 37.89426115 -109.2023467)
(3984.197775 55.56809422 -235.0757712)
(4315.579829 -127.7425888 -191.2263255)
(5498.28007 50.1840948 -76.72722907)
(-121.9569095 -252.7884839 -529.8063656)
(6085.686069 81.8976527 19.25304028)
(4193.659157 135.5997561 -9.291540895)
(5663.129658 -27.22376114 13.60703324)
(3458.094651 207.9100211 -109.770012)
(4316.570946 53.31885931 -50.21468148)
(5099.101785 -87.69271776 -81.99796201)
(4900.76722 -126.6797024 -145.2035811)
(4632.586183 -8.842392627 -161.7885052)
(4600.234098 -70.75378137 -138.0477676)
(4908.508316 41.70914411 -127.400224)
(4045.135883 47.45633908 -143.4481903)
(4812.950657 -98.02166083 -195.9250992)
(4835.655077 -16.25373417 -175.1994719)
(4476.946037 -67.08298373 -193.6024182)
(4174.660888 107.0918837 -205.6859201)
(4845.139703 45.42612274 -115.0648826)
(4475.356483 -72.99585492 -68.60649039)
(3877.41933 43.22278145 -149.9945282)
(3994.936899 -74.24407987 -132.5198507)
(3736.037851 -63.3409785 -133.3216261)
(4549.00958 29.83169871 -92.27466059)
(4093.870074 -11.17709605 -192.3212518)
(4870.069966 -36.08575175 -108.0418508)
(4772.049889 46.51856976 -83.91887751)
(5280.851612 -38.49549186 -52.78912705)
(4513.742345 -109.1627132 -54.8196238)
(4446.124504 9.991922483 -196.6564152)
(4184.449055 -72.82158831 -118.986391)
(3624.577094 12.10407382 -117.7439221)
(4656.113166 -84.81406705 -121.6542785)
(4292.701295 61.83318534 -251.4020411)
(5240.777169 29.43086354 -90.55370229)
(4103.226421 -49.32863237 -158.42453)
(5008.961781 -38.04010349 -84.70681969)
(4580.34204 67.58502798 -113.2567408)
(4112.906762 16.68529888 -177.0339059)
(3842.462543 -52.41877857 -173.4337863)
(4344.362478 41.78668311 -168.5563853)
(4150.749993 -49.01932649 -134.8566336)
(4216.576021 4.44801495 -162.7159088)
(4998.176819 7.724129774 -59.70326995)
(118.443041 -488.597696 -449.2930774)
(6002.030125 29.57688598 16.26856475)
(4788.740929 217.1367788 -32.90971152)
(5070.623775 -127.6390432 -12.25682357)
(3939.368114 158.3208641 -108.48332)
(4268.903417 95.62657186 -48.99717457)
(5744.592935 -38.54968732 -35.28453742)
(4661.331322 -116.0937481 -106.9083551)
(3718.511893 -159.2483174 -202.0689127)
(4483.501834 -10.17037451 -150.9110694)
(4272.783954 -45.23687377 -215.5165866)
(5121.957903 71.63491062 -87.25262774)
(4578.701847 41.75059988 -140.0988063)
(5353.29243 -67.38188207 -48.81958029)
(4201.288835 -49.07548677 -70.19336477)
(4535.982761 2.718361333 -139.3183008)
(4591.86165 56.31449441 -165.6125915)
(4967.590276 42.01061826 -124.8101935)
(5221.045145 -13.37509555 -186.2445251)
(4473.971508 -67.03781345 -201.9152752)
(4529.134579 -116.8090438 -168.8117065)
(3492.846083 -5.916803322 -174.1046907)
(3922.427575 1.059620131 -233.941087)
(4283.116137 -113.3066463 -188.7059362)
(4672.192019 116.2073952 -77.40561775)
(4772.140998 49.33933795 -169.339398)
(4662.603375 -42.12260968 -116.6321753)
(4219.693643 -104.5693811 -138.5172617)
(4507.588952 8.21488904 -159.5266047)
(4232.106412 -1.339228067 -114.7433501)
(4071.972376 -1.359913954 -151.3061695)
(4788.596047 -11.64751313 -79.40066034)
(4277.873756 25.40922943 -142.3556119)
(4516.662113 -83.38322628 -130.507848)
(4076.201345 -72.12628449 -197.5417308)
(4861.066794 87.8557446 -114.8447294)
(4358.049502 -116.5385857 -107.639606)
(4430.674949 -92.31739098 -97.52579312)
(4261.47281 0.3688661669 -182.5922593)
(4669.789596 146.5785282 -196.477831)
(4412.31588 -10.22786008 -174.2747844)
(5537.251957 -21.4653005 -73.47508543)
(334.3784888 -192.5477723 -382.6799273)
(3768.594044 131.856202 -29.74761415)
(5024.67171 -54.93699353 36.87578224)
(5238.903955 -83.77853551 48.23898816)
(5318.927512 -83.25936138 18.80059497)
(3991.241256 -117.4058126 -177.4776702)
(5745.318188 -46.50312969 -8.077874124)
(4687.04943 -94.31559495 -48.75083001)
(4283.146916 -76.02706055 -177.9442127)
(4842.368635 -118.7389096 -68.98220401)
(4921.486284 83.45578256 -118.0546646)
(3935.053304 142.2057533 -195.9618755)
(4564.9057 46.24924465 -211.1975019)
(4509.482121 -75.19449725 -169.1451725)
(5207.755521 6.184102197 -57.16057513)
(5235.791947 -54.59933906 -58.91423701)
(5065.840388 -151.7864437 -60.24483079)
(4897.082132 64.26660372 -93.16216304)
(4027.397208 93.7238379 -163.2530925)
(4338.972336 -47.58515502 -208.847111)
(4595.759615 -76.23610426 -143.3500388)
(4289.643451 14.83443522 -61.03641832)
(4513.270262 -10.78223488 -124.5593546)
(4817.56924 29.37070743 -112.5599353)
(5006.04515 -12.56034495 -88.11223681)
(4511.179567 64.15749744 -105.6843162)
(4234.738917 67.23697472 -150.9277508)
(4151.00941 9.891257686 -210.2981505)
(3585.388157 -45.91455116 -207.6791747)
(4061.965539 -84.51529726 -202.5348563)
(3811.895792 -42.81202765 -237.0451011)
(4151.368085 -75.48003031 -189.1033088)
(3724.704586 -72.96060252 -209.5125854)
(4548.355908 176.4354213 -115.5976707)
(4657.38989 -23.96308055 -109.7406257)
(4296.091442 -132.891395 -122.1318874)
(4392.576232 -139.9152227 -112.29908)
(4017.502962 -104.7124279 -165.6242355)
(4333.528252 -88.378925 -209.7042994)
(4422.556249 -30.71560024 -188.1047523)
(4987.841808 46.11349091 -155.0779344)
(5637.358906 69.15210976 -82.66745706)
(198.8103456 -199.3113849 -453.2874677)
(4349.737461 327.4547343 -5.435334451)
(5998.752336 46.49970046 31.78142612)
(5956.635101 49.93410559 49.50689311)
(5512.103206 -51.81957336 44.54683909)
(4733.678303 -149.3958572 -121.3581526)
(4336.52107 3.223623677 -119.6536692)
(5363.549037 62.96074802 -13.50699667)
(4876.594564 -60.41504897 -97.29664646)
(4877.311634 -8.746287195 -97.74181293)
(5756.845148 -26.93825652 -37.26760158)
(4175.456509 139.5149615 -192.966017)
(4728.492271 81.67310337 -108.7167404)
(4897.532879 51.17189168 -127.0240517)
(5330.709792 54.58484056 -82.95014583)
(5687.129561 -68.87462277 -38.23927477)
(4942.238544 -136.7867266 -101.1700605)
(5004.278017 -37.84708339 -151.998988)
(4336.925098 41.78961939 -99.40185492)
(3911.361077 3.908419173 -167.920175)
(4663.479027 -13.94847827 -123.4070138)
(5138.893289 41.20213801 -83.20279252)
(4123.727958 -46.25163856 -172.8474664)
(4759.693728 134.0533161 -170.7356974)
(4611.27154 97.60719041 -179.9467331)
(5072.166475 177.0296025 -76.6914014)
(4827.721708 -30.59753461 -68.54326735)
(4323.68652 28.42615404 -121.8221605)
(3820.924874 -12.41420485 -145.8199066)
(4010.22959 -142.5081882 -164.6964654)
(4394.794316 -25.8186571 -116.3506056)
(4372.829845 -28.27811869 -127.7805736)
(3928.877106 17.77220725 -115.5188607)
(4241.998166 16.35606153 -122.0965074)
(4420.292762 -0.4186448964 -155.4658226)
(4220.263192 60.93610016 -98.1443486)
(3974.242609 -61.57028274 -102.7129011)
(4345.893408 -71.90450304 -149.1038876)
(4416.837784 -23.44349057 -138.1125392)
(4299.447626 -22.42900997 -230.8478893)
(4408.163185 -33.30429701 -162.0652355)
(5386.329645 41.66401311 -43.06762919)
(-2.148628775 -206.0052398 -403.3106102)
(2333.424999 130.8000963 -105.096772)
(4567.898907 21.0430787 -16.47788141)
(4861.331883 15.55711098 -3.171302049)
(4195.930369 14.84370448 -139.5753472)
(4059.330325 -54.87271267 -106.8367347)
(4260.721236 85.20066232 -132.1518138)
(3217.863606 141.561832 -230.9948256)
(3764.638049 -50.56493327 -96.72456079)
(4309.128962 -56.06365658 -89.02954883)
(4779.401698 12.4522224 -112.2353222)
(3946.129475 8.790569442 -179.651009)
(5358.89097 -7.646345117 -57.70208392)
(3920.087106 68.87237589 -73.07653087)
(4603.21289 7.978221906 -110.6449591)
(4930.540252 -50.51348775 -93.97971346)
(5298.123042 -67.35702443 -70.20428798)
(4770.551444 -23.69171543 -167.4299088)
(4578.981418 39.85336849 -81.04127066)
(5081.976487 59.21182938 -68.52755375)
(5087.993591 15.16216496 -59.2577369)
(4566.720289 10.86928888 -53.27242258)
(4292.62085 56.78834625 -128.8723962)
(3823.77984 -1.503528681 -165.8850326)
(3868.177475 10.83226422 -105.5268385)
(4042.707279 -54.21179814 -193.9058742)
(4115.884612 103.8076051 -121.9798073)
(3820.347214 151.6556376 -182.6999281)
(3575.417993 119.8385231 -160.4339161)
(4273.069424 72.71898084 -144.7591882)
(4114.972835 18.73039033 -152.6683815)
(3756.720449 -101.2738745 -132.7275597)
(3878.997331 -183.8622341 -134.3911906)
(4674.570465 -22.69867818 -134.8822911)
(4607.4576 110.8796894 -80.45326373)
(3456.580619 81.46354718 -146.6403686)
(3699.374093 42.97824989 -167.5961234)
(4161.929418 -113.7743511 -143.8979189)
(4121.435122 36.69266812 -115.7552183)
(4628.272584 126.7105744 -79.38516345)
(4499.590798 -28.25748178 -117.4676197)
(5280.241862 -41.6608087 -69.98710483)
(-15.15901474 -115.2270251 -418.7430148)
(5379.123894 47.13463981 3.317552424)
(4693.740431 55.92892563 2.642416075)
(4365.171466 37.74033817 -143.1491087)
(4850.743177 -26.10241491 -97.4860995)
(4842.962382 5.195414494 -52.41570798)
(4122.556501 -89.75812233 -115.1602179)
(4143.453616 96.35561748 -153.2379561)
(4611.749596 -58.47820755 -121.4328279)
(4228.4269 -28.48941753 -195.9595388)
(4574.289284 41.18090046 -162.3610131)
(4701.16218 26.76227186 -83.62956424)
(5292.841035 51.97193664 -85.63489995)
(4738.504676 123.2764351 -173.2526931)
(4728.775336 -26.895244 -176.6662926)
(4745.136535 64.94571454 -173.4809282)
(5424.407438 -7.801519035 -85.34783082)
(4572.240684 -48.05654262 -137.841573)
(4027.770922 13.98359108 -205.6473485)
(4213.37729 101.2173365 -131.1526931)
(5047.007804 160.866303 -101.2126118)
(4493.788011 -36.43671826 -115.2141736)
(4117.443893 -20.13017286 -126.9493889)
(3683.812884 -27.31578528 -144.0667226)
(4046.4298 88.97101551 -104.1018158)
(3793.213634 -8.342833913 -185.6459916)
(4820.27872 121.8060088 -53.46360198)
(4464.583447 10.78093439 -148.3927808)
(4312.658808 94.63359607 -187.2918895)
(3753.571329 119.0999996 -245.2965364)
(3980.273783 -69.2016354 -190.6375909)
(4096.301755 -108.2468512 -167.8226609)
(3862.327778 17.40526208 -133.1798035)
(4013.877259 27.66424305 -127.701862)
(3422.699753 43.56421708 -124.182417)
(3866.155429 60.2293456 -92.89509081)
(3707.350295 23.79569089 -184.6841617)
(3650.143353 11.98483549 -137.239711)
(3777.66687 26.37853232 -186.5333883)
(4630.246571 -36.50247661 -171.2853647)
(4632.292611 35.96410846 -123.2296157)
(5569.252169 10.62475658 -65.80868372)
(217.2507037 -146.5945464 -380.1486047)
(6070.043827 22.95616266 39.1991663)
(6042.336707 38.1579619 9.08470825)
(5705.514379 53.74526217 -63.73834156)
(4191.97358 84.35229986 -222.991874)
(4560.469809 65.89236382 -155.3961413)
(4839.34815 -54.2019702 -50.57476032)
(3982.177344 -24.533202 -146.9847167)
(4262.820111 -146.4318293 -119.1034772)
(3987.95024 -125.3383697 -81.57463038)
(4363.347426 -34.54101856 -129.7564245)
(5107.072586 89.54138589 -102.4514504)
(5117.505914 21.64155945 -111.0242387)
(4306.961815 32.97005852 -100.939859)
(4794.985757 62.87116583 -144.6149895)
(4609.518774 -25.08198115 -155.1033502)
(4028.997793 40.67607644 -104.8813332)
(4282.432899 22.61852118 -136.8125191)
(4613.042489 120.5770352 -95.26349362)
(3714.230211 54.71942151 -164.2727603)
(4479.051158 -107.052837 -171.9710527)
(4049.635564 -1.70133152 -163.453766)
(4658.141749 100.6496078 -139.2204891)
(4022.391396 199.9574467 -142.2876391)
(4592.067669 30.62523912 -95.39029715)
(4567.517818 37.67684677 -93.57116248)
(3840.096527 -2.504958148 -170.2431917)
(3937.057151 -81.33745298 -244.8399793)
(4415.222048 39.42096678 -213.7043039)
(3849.237279 41.90355834 -178.766573)
(4363.846005 -29.00136606 -165.3454367)
(4650.539471 9.9533189 -159.8617042)
(4204.877858 -72.98911043 -86.25460372)
(4362.722611 21.44283863 -142.8179637)
(3632.062956 86.07156127 -183.1662196)
(4787.465487 134.2499381 -110.3780835)
(4000.925767 41.0269141 -119.0206805)
(4633.957784 -16.84503397 -94.71887727)
(4405.277248 -188.4131647 -113.4944409)
(4603.003868 -79.54515718 -111.258091)
(4521.316285 -133.703992 -117.8461096)
(4866.178686 -55.14664974 -92.31202453)
(441.1974095 -157.1627796 -687.2752656)
(6034.534878 60.07756675 -71.65751134)
(5980.11967 16.81923872 -43.5060578)
(5869.000398 -1.282742593 -60.53019311)
(5158.616835 -9.888333131 -153.2979293)
(6011.905829 14.49862261 -36.79588882)
(5158.931833 133.0852171 -168.2108248)
(4389.666823 8.606165617 -121.3348158)
(4647.644397 -6.974843181 -80.00341856)
(3843.671198 -50.44735593 -223.964525)
(5723.298099 -7.82033997 -93.40596052)
(5214.65227 -99.55805768 -83.72631855)
(4117.777802 19.30800009 -68.0229906)
(4898.460898 12.9894053 -80.74946129)
(4300.193419 106.7546738 -165.6452579)
(4412.695969 -123.9518776 -162.2255143)
(4746.497542 -64.10726853 -83.42817671)
(4348.730212 -62.87154306 -116.9547442)
(3386.899487 -6.264175936 -161.1285799)
(4362.389876 -16.23622515 -149.2328728)
(4969.730435 59.85092706 -131.2617048)
(4806.56181 -78.48829345 -101.9707134)
(4650.24636 100.638746 -161.4076497)
(4111.246161 6.101567415 -70.78261166)
(4071.055349 59.83076254 -133.8689958)
(4803.95095 -27.32928885 -45.59039176)
(3938.787572 -143.3231821 -171.9408432)
(4566.493202 -14.63909315 -110.0276196)
(4074.354307 60.76849637 -140.6028945)
(4260.557987 144.4770727 -144.0542691)
(4378.276515 143.6521916 -192.6994001)
(4561.188405 7.569579024 -154.0912027)
(4316.008584 -25.22649709 -106.517728)
(4259.506314 17.3857084 -111.5877978)
(3817.779625 5.782088393 -172.5119009)
(3980.699542 74.18741667 -108.1405025)
(4136.630859 16.4809465 -111.6401781)
(4682.590231 -16.19338247 -101.0986175)
(4673.458408 -31.8563065 -142.3959566)
(4040.614425 -32.21776199 -230.0774737)
(4733.450547 -4.559796142 -195.3224502)
(5602.283916 -26.83400803 -71.87843163)
(-189.4795076 -44.94394066 -646.3606242)
(4574.249579 69.1064465 -245.2504901)
(5864.998996 68.70195285 13.11394016)
(6024.379101 35.62612999 0.3690975001)
(5204.837339 -77.86273033 -99.23311854)
(5600.951151 12.16147225 -3.909026187)
(4994.568245 47.64335554 -71.5026738)
(5205.6358 37.61277739 -59.70266052)
(4147.457431 67.04551074 -147.6945711)
(4741.441588 30.31151586 -69.47621812)
(5027.285077 114.4928236 -108.4418399)
(4834.161409 44.07771681 -99.84321002)
(4691.306003 -83.807786 -95.21562538)
(4935.914899 5.764374316 -84.14543328)
(4865.547516 31.43026386 -77.75441486)
(4103.044016 -76.88290101 -145.3477679)
(4690.717374 71.819339 -124.68814)
(4279.839901 -17.79517604 -211.8759372)
(3359.12274 74.81425412 -182.4688518)
(3538.3765 2.731702251 -133.4886868)
(4322.17041 91.53809545 -216.3552829)
(4148.606022 -31.61126621 -225.7795343)
(4208.126273 -41.22532811 -165.8318825)
(3371.076684 66.27683887 -173.5060501)
(3818.926677 16.12226319 -175.1306803)
(3490.860097 -86.05248818 -165.4454616)
(3562.911695 -118.7724693 -105.4062395)
(4586.176653 -27.27499968 -129.1848794)