/*--------------------------------*- C++ -*----------------------------------*\
| =========                 |                                                 |
| \\      /  F ield         | OpenFOAM: The Open Source CFD Toolbox           |
|  \\    /   O peration     | Version:  v1706                                 |
|   \\  /    A nd           | Web:      www.OpenFOAM.com                      |
|    \\/     M anipulation  |                                                 |
\*---------------------------------------------------------------------------*/
FoamFile
{
    version     2.0;
    format      ascii;
    class       volVectorField;
    location    "3.989";
    object      U_O2;
}
// * * * * * * * * * * * * * * * * * * * * * * * * * * * * * * * * * * * * * //

dimensions      [0 1 -1 0 0 0 0];


internalField   nonuniform List<vector> 
50792
(
(2768.273412 -553.8710665 -418.6336415)
(847.2643914 -262.4296515 -442.9910925)
(962.8486535 -334.4134167 -298.9955719)
(5239.745641 -114.6926495 -69.76580542)
(4628.764254 -188.8094868 -147.1978319)
(3901.816736 -154.0987156 -171.557575)
(6043.953176 8.212736085 -51.57099195)
(3952.880175 -323.2451951 -202.7097133)
(4306.925653 -450.6113247 -212.3211909)
(5750.758216 -118.9919106 -95.87599749)
(3303.751456 -359.5800976 -229.972064)
(4191.187493 -314.3641728 -174.3657357)
(3185.737436 -251.0044798 -114.5242294)
(4424.956954 -673.8251042 -316.9906256)
(5970.978697 -151.7050102 -9.375095811)
(3840.883718 -239.0624391 -153.5573119)
(5499.316719 -296.1029859 -86.95186711)
(5293.567792 -295.4824484 -91.50454345)
(5931.80775 -173.7694962 -52.02734736)
(5953.635007 -201.7865225 -58.91703904)
(5948.922378 -149.0050432 -12.7641693)
(5607.511594 -144.431622 -18.62375369)
(5411.678214 -281.8194827 -310.6220094)
(5409.261243 -577.0488814 -154.970917)
(5572.865617 -303.8803412 -166.1987848)
(5819.064765 -167.6904865 -113.2558523)
(2985.522825 -158.4187077 -170.6274429)
(4443.417307 -181.143734 -110.7622336)
(5071.21272 -192.9310162 3.205442721)
(4677.026982 -332.7923007 -111.0687005)
(4531.820884 -403.7580833 -269.6775861)
(5250.911949 -130.0135679 -207.6762257)
(5708.314141 -131.3232982 -198.9081872)
(5765.390866 -181.8749882 -107.6226471)
(4190.650694 -290.9804454 -240.2653229)
(5776.822758 -151.6007653 -106.6169688)
(5756.051704 -116.3311416 -103.6769845)
(5344.043183 -162.0573986 -134.9369456)
(5699.10219 -186.198481 -136.9977345)
(5796.750595 -208.2004301 -117.3123658)
(5639.860631 -235.9441813 -132.1755845)
(5673.49215 -111.5248212 -101.0853145)
(630.8821689 -293.7145118 -256.9412126)
(6147.102734 -8.758190209 -145.0912263)
(6107.18797 1.476712621 -60.8884317)
(6096.292876 -22.82753124 24.92711037)
(6123.10775 -41.30550256 37.05442034)
(6134.954983 -7.975940135 4.076650071)
(4433.015542 -2.344899336 -229.4205219)
(3557.333277 -123.6712459 -94.34700092)
(5920.909129 -57.89067452 16.9537829)
(4375.905712 44.54269498 -62.57879444)
(5565.167262 -74.42634848 14.23665979)
(4273.561048 -95.08715838 -24.98994201)
(5014.828289 -221.9684348 -225.9328482)
(5579.520981 -259.7635283 -39.91721887)
(5384.716824 -59.30614819 39.02356125)
(4370.765609 -105.059618 -211.683038)
(5970.217589 16.71535574 -72.54672137)
(5080.512245 -33.863722 -182.2244662)
(5672.643163 47.84404786 -132.8906341)
(4543.129948 136.5025083 -53.45620396)
(4319.974984 33.07305664 -24.81692396)
(3537.168118 -44.78140681 -115.2624261)
(3259.941329 -43.25932811 -153.0159065)
(4254.337781 35.96836576 -41.4500495)
(4559.302336 -19.29401634 -87.88712813)
(5868.142557 -40.15801403 -11.86981423)
(4871.960184 -18.79599115 -183.3671014)
(5660.508186 -101.8355487 62.78790352)
(5616.232299 56.8738362 -15.76124091)
(4391.243464 -141.5476187 -131.3443511)
(4998.566382 -121.7088195 -103.0804188)
(3311.434372 -130.6046013 -85.88890282)
(4364.153008 4.534020379 -193.6668018)
(5160.09229 -204.8196291 -38.69535829)
(4361.176659 -97.65195334 -124.078789)
(4392.838054 48.49456104 5.881384745)
(4738.00809 -134.5369322 -100.8243394)
(3220.161691 107.6381306 -234.9406554)
(3639.67899 -139.6862892 -62.19098532)
(4685.296538 -104.9354104 -277.0728299)
(5277.560594 -122.8060572 11.98590545)
(5860.635339 -208.3328352 41.43939314)
(6089.3352 -33.13610333 -41.94695513)
(5989.304466 -96.43901708 -92.40682104)
(6020.574501 -63.3365388 -2.609909474)
(6018.848383 -42.29846423 -16.21229431)
(6038.811927 66.55114746 -9.790409316)
(6054.70367 58.90061082 -21.59794506)
(1555.035877 80.45721745 -230.5147125)
(4797.505084 -53.60607738 -56.69774931)
(6017.305448 20.66152943 -3.810802969)
(3447.535539 4.640431117 -268.5089717)
(5696.415392 91.6958233 -262.6801239)
(5470.344438 -133.2697002 -32.29839889)
(5007.76734 -119.6491919 -126.4384593)
(5519.739728 -143.3018007 -8.402743738)
(5036.092462 54.98191507 -213.3372763)
(5738.370734 50.53049014 38.03198557)
(5502.336924 -33.47986095 -102.9697284)
(3727.770054 48.97631302 -62.70219951)
(4574.567676 -11.27130402 -21.26517769)
(5371.447703 -85.31555551 -101.1705417)
(4866.267508 134.2883888 -138.8532545)
(4248.975105 -100.6881643 -305.3731382)
(4941.133809 -164.2863053 17.45725419)
(4403.309758 -77.35842726 -317.797811)
(5614.587764 -42.67994355 -174.3329627)
(5847.412444 58.36340822 -82.16275258)
(5400.76056 -88.69855642 -173.865288)
(5011.869175 40.18545548 -160.2899887)
(5120.64995 -89.65690182 -137.998772)
(5714.131243 5.246144968 19.91658047)
(5422.61389 -18.9977154 -14.6058739)
(3484.588425 -205.1046381 -127.2328706)
(4919.788504 -15.27113896 -9.700429921)
(5390.017477 43.77979251 -42.0977712)
(3996.648542 129.0750672 -190.6295423)
(4701.104007 193.2074065 -245.5513302)
(5281.120078 2.15366598 -94.49369206)
(5219.389671 113.7666678 -148.6699391)
(4480.631756 135.874566 -194.5438821)
(5413.34029 -381.0760594 -102.2570182)
(3673.585046 -193.5242703 -199.7550518)
(4352.173282 -133.5360268 -178.1015884)
(-21.31548866 -733.0085423 -163.9965706)
(6143.501178 -15.56312283 215.6471619)
(6101.266819 -59.81014789 107.9343599)
(6128.401463 -98.83419315 26.76668615)
(6109.007929 -81.6402192 6.933008643)
(6044.718407 -46.414674 17.63033582)
(6017.349973 -0.8987224829 59.401243)
(5998.362198 2.905818483 47.22749503)
(3939.823436 -149.7404467 -242.0171963)
(5445.620899 -376.536325 -13.88913801)
(3544.285199 -48.60206856 -305.0434561)
(2245.346775 -263.2989783 -271.6468864)
(4676.079243 -96.43276172 -26.79834392)
(5451.28404 -270.7829405 -34.15868384)
(5157.201812 148.4339774 -274.9788484)
(6075.865833 -16.4007236 -87.93983328)
(2968.688168 50.53808517 -282.5985364)
(5232.150924 -99.55566938 -199.4095759)
(4389.893186 -200.1556061 -132.043875)
(3306.054268 17.26162714 -53.80169843)
(3687.112304 -23.7720205 -125.7922458)
(3896.345895 19.59081565 -102.7894145)
(5766.481941 -20.25200865 8.987183348)
(5053.275816 44.93309693 -132.8147646)
(5680.460817 36.73039276 -147.6408817)
(5766.29797 -239.0049055 -138.7989607)
(4516.738563 -214.7052722 -63.68275294)
(3829.53761 -105.7984536 -146.2136527)
(4755.834036 40.31222908 -169.9119345)
(5234.547424 58.06888323 -41.25660884)
(3582.913038 12.76877471 -253.963945)
(3243.160823 -79.63068889 -27.8452343)
(3034.617548 62.58336014 -138.2701423)
(4734.330408 -171.9260582 -95.89166131)
(4702.733899 84.10684961 -121.6025221)
(5488.34538 351.1871324 -10.03732549)
(5405.408924 -48.16684393 -27.18139143)
(5749.346754 -76.46831995 1.437283885)
(4218.370436 -76.05542648 -133.7538502)
(4612.749846 -162.5811114 -118.3898709)
(5309.024511 -38.16261818 -113.0489213)
(5758.407446 -149.771446 -10.14026408)
(1064.64941 -557.168001 -194.3216973)
(6122.65136 92.60415534 -126.2813086)
(4122.712185 -0.8041151238 -307.3684862)
(4854.446092 2.103389426 -137.4500419)
(5990.652803 43.06391276 61.24174151)
(5983.114911 86.53793984 94.14085695)
(3285.150878 97.21490204 -181.201494)
(5109.776158 -94.61038985 -40.2576878)
(3388.223001 -39.35855719 -191.1057991)
(5628.671654 -264.8373381 -99.08220995)
(3848.539684 -91.12456385 -111.2913515)
(5445.708133 -198.5458149 9.109625945)
(4665.629503 -58.64816296 34.40290468)
(4520.180343 -173.8539459 -193.8533558)
(5520.358576 4.833872126 47.34340853)
(4967.35651 74.75415796 -37.98297132)
(3621.016577 -79.30902665 -263.7779432)
(4738.494722 -222.3447776 52.89542262)
(4470.096791 176.0093766 -166.0458727)
(4186.737952 265.1501626 -114.6523092)
(5753.614025 -75.6125762 -30.32307258)
(4060.484995 70.40143936 -42.38618405)
(3968.975952 160.0889016 -79.20971996)
(4481.761807 -130.5009731 -241.9794018)
(5374.01172 -68.74711703 -83.41332147)
(3774.920931 -19.1598238 -316.5559162)
(4264.384794 115.7594243 -212.9735669)
(5511.175532 17.34896184 37.72533695)
(4031.281834 -162.2404206 -74.93472699)
(2906.027011 -139.3271036 -258.8176297)
(3691.583604 -81.079465 -199.0812611)
(3742.375753 -259.7093394 -213.8171805)
(3358.358664 10.72365809 -154.4339986)
(4663.346508 14.88785643 -106.4824879)
(3769.848911 -24.52762746 -273.2736557)
(5723.017528 -4.917193959 -107.9213177)
(4993.074407 -98.60966116 -49.44748936)
(5106.643382 -163.7906145 -67.49751715)
(4373.692148 19.53199743 -52.25372911)
(4815.493292 -57.82975716 -221.4187035)
(4430.679824 -229.7625562 -220.1778479)
(5386.297914 -99.24972083 -204.9161991)
(5837.815637 5.967011305 179.51139)
(5929.051668 -75.56237784 107.2828053)
(5967.871241 -37.62117846 98.04373961)
(5996.405239 -82.06231406 147.7982031)
(3314.129182 -88.15614677 -321.7740057)
(5981.615131 -123.7365136 114.8373631)
(5785.428569 -81.43478989 67.46843801)
(3597.005551 -208.397947 -165.2108368)
(4030.635154 275.0162517 -35.2144772)
(5620.1177 -38.91696478 -161.0270389)
(4934.126835 43.07142083 -134.5108332)
(3681.29208 -161.950571 -295.4246546)
(5760.323713 128.7150049 207.4201498)
(4432.070883 -184.462387 -122.3200671)
(5058.272175 274.4408289 -55.20090772)
(4000.239893 -100.3541182 -371.7382595)
(5377.376216 222.2525064 -68.28285847)
(5814.512005 146.0475568 -102.1054606)
(4747.771266 20.75713701 -128.8913583)
(4491.637731 -106.7812007 -257.174162)
(5377.169082 85.13396166 -82.25030695)
(3322.236557 -174.8378219 -297.635851)
(4387.621695 -135.4309011 -43.26284196)
(3561.391054 -134.6358721 -202.9950462)
(5213.426841 -163.3883039 -135.4359902)
(4860.279893 109.3188652 -69.51773324)
(4833.649257 216.9078782 75.05995275)
(3798.683787 88.19861594 -224.3849727)
(3505.571199 62.82035447 -276.1648509)
(4904.749716 -467.3328393 -28.42118479)
(4720.205598 -538.2843831 -142.5176002)
(4061.179988 -235.7070704 -167.0039723)
(3148.732333 15.67596146 -172.722147)
(4177.158829 263.3864421 -251.2156281)
(4126.214051 17.85312574 -145.7290879)
(5009.475207 107.9868508 -174.4696402)
(5598.028226 2.371141692 -79.08414505)
(4908.142807 -204.5920853 -47.1306498)
(4791.779658 -139.9101678 -290.5451802)
(3993.056358 -191.8543774 -84.89001468)
(3464.111264 -270.9350283 -233.0661936)
(5402.857492 -96.80405784 -204.8598219)
(-207.7956842 -124.2411583 -584.99076)
(6201.989563 239.0151933 36.53238987)
(6226.438485 187.5164263 -5.541672869)
(6012.966911 96.42555095 -14.75146314)
(6033.566505 38.78567392 93.14428906)
(5630.773072 -43.50712474 28.49144057)
(3696.032016 -408.0051578 -174.057651)
(5799.79336 -67.81605055 125.3660442)
(4697.010643 350.4467654 137.2307506)
(4812.748965 4.044943894 -75.18033875)
(5497.730031 47.46135811 -28.50194399)
(5584.324657 295.4570672 -204.5068058)
(4292.689344 42.30731703 -373.5769601)
(5697.731107 85.80645651 -68.69590401)
(5468.9217 71.0933709 -169.6839749)
(5784.873327 117.434985 49.03892095)
(5092.691927 -9.305185556 -80.44482056)
(5399.178774 -75.3594223 -166.3142862)
(4873.249671 -2.558665753 -209.6582475)
(4210.847356 -418.8030065 -250.1870729)
(3737.929577 -54.23189212 -189.9989061)
(5137.191103 -11.82599624 -79.84704339)
(5034.695411 -134.8621914 -253.6790182)
(5160.365219 -116.5922491 -121.8752503)
(4605.378133 -75.95678275 -56.6983197)
(4460.526954 -122.5108635 -86.42801148)
(3561.847018 -53.20441735 -127.0024214)
(3947.098381 128.2371537 -92.90226713)
(4322.393788 85.52625293 -138.042272)
(4113.813067 107.0486085 -192.0700367)
(3085.301853 -107.9774585 -332.6979313)
(4298.607877 -26.5390067 -154.0578073)
(3616.094193 -130.2093421 -282.774)
(5837.912619 -29.96091188 -2.292720428)
(5658.186873 185.8757352 28.44955781)
(5946.769536 20.43495031 16.23994499)
(5091.147474 -59.93458369 -49.22145112)
(5223.125827 -114.1250121 -181.1205709)
(5234.314431 -46.3894283 -24.54316995)
(4737.251642 -23.46633304 -101.1334059)
(4306.713304 8.599390337 -189.8096899)
(5398.350939 -20.94663524 -222.1531414)
(6136.465935 -397.0316764 -400.409777)
(6155.367965 -123.1746571 -99.23950866)
(6185.067105 122.2732964 -152.9243571)
(6107.287012 131.2046695 -113.1060811)
(6010.531976 60.80769268 -121.3365617)
(5028.952667 -12.90460262 -240.1287128)
(5435.341478 59.74439051 -107.2815951)
(5181.022906 242.1042172 -171.8198939)
(5966.242407 69.20334078 -91.63642175)
(4532.2946 34.91433424 -87.26311307)
(4952.781876 33.84180448 -259.0636476)
(5965.276697 50.65887684 -67.54841039)
(5844.266332 103.722089 -67.17982199)
(5902.541653 71.53633472 -73.82342862)
(5695.119359 77.18531886 -131.6885904)
(5376.529013 -17.09062551 -137.0750902)
(5698.172152 -164.8851511 -66.0607247)
(5639.24751 -0.5947813838 -56.9438753)
(4596.855947 -218.8043185 -192.1908956)
(4728.701953 -340.6201632 -132.8549228)
(4576.508535 18.60071078 -107.1438981)
(4551.401422 -3.303666087 -226.2546314)
(5057.395939 -89.4961253 -155.4978439)
(5178.371406 -96.72930704 -59.44483855)
(5045.964713 -137.9604716 42.60973314)
(3069.075501 -237.3302862 -219.8184668)
(3577.407802 -16.30901173 -154.1197559)
(3831.656949 -62.7555139 -237.259805)
(4946.376782 279.4350473 -13.50444836)
(4731.410401 2.207457747 -139.6622911)
(4774.373903 178.1079677 -238.7775665)
(5040.106 164.9929692 -153.3638965)
(5489.969878 -1.412493388 -134.3950034)
(3958.799538 -189.6662161 -261.7030421)
(4788.954496 -3.815701104 -171.6521267)
(5166.442795 42.78048392 -27.85648192)
(4564.358865 -291.6624902 -107.0219049)
(4939.352347 -81.09815972 -113.8694042)
(4364.344888 -42.70263798 -160.7759336)
(5400.425878 -80.64625848 -157.5497346)
(4302.813653 -109.3366086 -25.89549615)
(4465.901933 147.5623494 -214.0427077)
(6032.03885 8.74855787 -344.3247903)
(6089.77453 -91.39620889 -176.0554399)
(4516.547221 192.1432532 -98.40054635)
(6094.052511 -64.06016321 -119.2601258)
(6085.009604 -41.47477172 -59.80370094)
(6078.828257 -32.60346934 -53.42213906)
(6145.396373 2.777513754 -60.51353509)
(4249.936315 -109.6954452 -219.9004715)
(6100.650334 113.6464293 -50.86345158)
(4553.181858 247.4261433 -152.4098316)
(6000.354253 83.85574254 -60.32220447)
(5591.294846 64.46824679 -180.2822976)
(6097.608855 -65.76272266 -76.19153887)
(5841.936076 -111.2273039 -106.4313996)
(4979.617805 -109.4829603 -233.9824728)
(6016.018976 23.51501286 -177.8060366)
(6069.789658 20.1719381 -70.83994513)
(6042.826051 35.33157947 -52.56611316)
(5256.645025 142.9880435 -27.25151203)
(4802.931147 -16.27846171 -150.023804)
(5844.623124 -49.14799778 -140.2490282)
(3307.632674 -148.7512793 -195.3317427)
(5059.970672 -90.57199862 -141.9778593)
(3915.711094 233.1993956 -191.5760599)
(5038.209837 -195.891202 -198.9696429)
(5805.737845 -253.7024527 -92.55024302)
(5076.45838 144.1631234 -142.2404842)
(4773.185893 124.8009852 -23.3101166)
(4344.839859 -77.34994688 -144.22516)
(3199.097454 -82.92034534 -128.4985961)
(1836.148288 69.34851718 -1.580295781)
(3167.858486 -44.71336503 -9.383487295)
(4104.529171 34.95521952 -205.5459964)
(4951.451233 -64.62505372 -113.9125746)
(4910.128601 -26.23074057 -50.34987555)
(3641.871687 85.57540647 -111.2886061)
(3876.908929 -78.63410926 -111.6027492)
(3005.804257 -37.26259735 -194.0190521)
(3903.59859 181.8976052 -135.1387138)
(4867.626367 52.16322436 -259.4940502)
(3133.400014 -345.9120055 -335.8001218)
(5471.10364 142.7731141 -120.0735118)
(914.3195103 -117.3932605 -369.8997679)
(6057.726639 6.799227218 43.300356)
(2584.982947 609.7720022 -78.89791131)
(6067.893993 39.94799711 26.73051815)
(6117.974239 -14.94354886 39.96391824)
(6086.708089 -45.56527976 10.0363153)
(4737.784419 -235.7290075 -107.7239159)
(5918.250765 -114.9534568 -1.567551645)
(6133.526131 -84.66576141 17.17167583)
(4783.585827 76.75849812 -165.802322)
(5121.076314 -240.0608714 -234.0146116)
(4234.778441 208.09416 -79.03378627)
(4842.510669 3.868717226 -139.3158879)
(4862.265729 -132.5414549 -164.3002912)
(3406.908306 -141.7981129 -34.39345263)
(5924.234584 122.079765 6.519093616)
(5173.002868 176.3663416 106.8387707)
(6067.771268 -83.9970219 12.88404188)
(4949.481538 -117.4068345 -188.3641892)
(4603.332219 164.019066 -353.2184124)
(3875.685197 243.1604098 -154.6230306)
(3531.946345 130.8645277 -232.4417194)
(4767.080097 -179.8994273 -89.6770512)
(4053.817927 6.365109071 -305.5328483)
(5862.484955 31.3765821 -34.80992874)
(5863.316735 133.6617071 -41.06481743)
(4947.248531 -10.23409583 -123.7286265)
(4892.72042 -14.37770775 -202.7840288)
(3914.969865 -109.789403 -56.83302234)
(2317.203706 73.56147878 -93.04485676)
(5428.415749 -26.6994672 42.32352077)
(4091.537267 264.9908377 -355.0646877)
(5674.491969 34.09342758 -228.5062232)
(2662.906617 6.848727745 -168.7033877)
(4951.521203 -41.77948941 -194.6312916)
(5208.967384 165.8891987 -10.17793301)
(5243.231843 227.0392773 -107.9766596)
(4128.277346 -72.9156929 -161.8010093)
(3469.198397 232.4102527 -122.2909952)
(5016.514095 -55.48831163 -215.4589706)
(4191.087388 -125.3020947 -189.8118152)
(5501.401548 -144.2804642 -54.03690776)
(-119.8547757 -266.9396068 -604.6309236)
(6231.606426 50.94001722 -100.4795612)
(623.3465655 962.5849782 -161.9126913)
(6096.674296 108.5321166 -127.1978503)
(5984.626997 202.7889631 20.46710265)
(6063.288796 58.92259499 -27.6655571)
(5872.568334 -244.6429774 -189.3923782)
(5336.372072 -137.8174552 -158.7606285)
(3744.335724 -7.992973866 -205.5429243)
(6026.427029 -4.005180948 -52.51726897)
(4374.531036 -150.8499358 -284.4943699)
(6027.220381 77.92730174 -22.43275295)
(3816.76655 241.8554988 -154.2855831)
(4872.339826 22.47763396 -71.450029)
(3152.612068 -190.7818208 9.296974099)
(4900.584384 73.62801505 -163.3225512)
(4112.070074 203.3919166 -327.3987214)
(5510.411473 218.1976471 19.29789941)
(5500.0583 -30.01667688 -178.9116019)
(5093.924805 232.6040988 -234.6391666)
(5716.515222 255.7056987 -26.53517242)
(3894.67888 -63.113464 -78.60177853)
(4167.393579 51.90814898 -225.5652447)
(4337.940635 41.20726867 -168.332725)
(5552.092265 157.2585457 -71.23358425)
(5449.920309 79.98310943 -197.8673539)
(4930.947889 -32.44029171 -8.705569489)
(4193.970193 -347.720707 -184.5623907)
(3881.099665 -43.60188108 -248.0205194)
(3493.729895 -40.58585463 -132.232584)
(4179.590158 167.7270025 -141.3514557)
(4553.364616 245.4683514 -224.7590108)
(4396.990104 102.3631062 -15.3823618)
(3922.991511 -11.94715503 1.03290714)
(2754.495816 -213.5530111 -234.4571632)
(4275.569157 7.180996453 -193.8252938)
(5248.606312 -317.6758906 -144.9259339)
(3760.112048 -268.6026943 -80.92854253)
(3427.884562 -14.35068588 -276.6691965)
(4567.004033 150.7773139 -346.2191268)
(4268.21382 -246.793966 -84.8358508)
(5527.568457 213.4458771 -68.49875023)
(4792.793731 -193.9562882 4.382616056)
(3144.435735 444.5261991 -66.28143056)
(5627.952647 -20.49466774 -1.94460012)
(6116.473654 -135.4403821 18.41665758)
(6086.46666 -46.58034635 22.66642481)
(6081.501544 1.805445349 52.78902867)
(5030.368099 -87.36430103 -122.3154193)
(5784.533216 -225.5299988 -133.3794654)
(6087.619978 28.22947355 -61.44228001)
(6118.513115 57.72299611 -36.44195882)
(6090.79086 95.64901814 -79.19759718)
(4823.779869 109.6849097 -237.5202444)
(5325.067145 72.61908323 -200.2710305)
(3731.846804 -80.05080715 -296.7710359)
(4937.983975 122.4909881 -52.40793935)
(6070.084989 -53.48715194 -2.996394683)
(5935.09198 -154.7838902 -78.49794314)
(4886.372187 -47.81407131 -138.0286387)
(4617.702422 202.6045183 -78.60691559)
(5059.228855 -5.028646325 -180.1701188)
(4685.326182 -72.34152368 -199.449096)
(5167.47423 116.0558126 -48.85054794)
(4931.144473 244.9459952 -40.11540713)
(4690.191368 40.33222104 -20.68864019)
(5388.231299 -64.76535965 92.84646003)
(3907.137321 147.9506851 -137.9637512)
(4338.316874 -110.100998 -106.5889877)
(3505.442554 -176.0634172 -236.7309355)
(4124.131575 165.6081662 -65.02707168)
(3089.640724 -73.76361222 -248.4341161)
(3461.986147 9.556386356 -29.57373044)
(3906.745982 -148.4598691 -172.4817992)
(3645.265703 -159.0467996 -209.8179659)
(4562.895042 366.9451087 -108.9680151)
(4874.684737 90.06422146 -57.0020052)
(4401.115237 -189.699585 -132.8254525)
(4264.993802 -82.95140773 -115.7415911)
(4473.645409 -270.8776029 -89.70808162)
(4938.762608 -173.3083251 -151.281206)
(4516.197381 -143.003817 -179.5795975)
(5424.000148 17.71832955 -81.63279555)
(5513.009128 98.64160867 -40.0833206)
(-44.26301231 -261.286061 -560.4464165)
(2095.586837 703.3417024 -176.457386)
(5962.845524 20.43870865 -140.8969475)
(6127.271388 31.74632854 -14.01242257)
(6109.13997 0.6789962119 -3.307671706)
(4996.549537 -183.8117583 -76.11039602)
(2450.381006 170.677429 -293.4285781)
(6011.362813 -33.91342429 -30.08284693)
(5490.29631 -48.45218295 -41.83485836)
(4417.278644 118.8860097 -112.5056741)
(5667.69153 6.734978763 -43.19955301)
(5942.954811 12.71042645 -121.6416379)
(5368.644269 48.39177822 -201.0243628)
(5525.04639 106.5322329 -183.1344513)
(4450.331481 204.867987 -154.6341036)
(5829.08177 -98.95125079 -27.01471575)
(5624.388484 -30.3725914 -9.502662955)
(4887.691863 -41.06570119 -199.8356341)
(3712.21404 98.83546144 -110.4864564)
(3619.693116 14.3946276 -74.87170382)
(4355.906563 -25.84054361 -282.8057074)
(4386.951923 85.64965885 -78.94623348)
(3796.378979 6.383306555 -186.0096074)
(5100.073904 28.06424498 -132.2864442)
(5116.900329 278.5054586 -96.51868195)
(5804.12035 248.3581847 6.56993695)
(4865.878533 -90.08744647 -81.49746862)
(4781.413589 2.356549781 -121.1716416)
(4666.666107 172.9409173 -0.2011135094)
(4642.587367 -113.7661264 -181.1399666)
(4661.537857 -67.11544377 -48.79410678)
(4394.584882 -68.0783812 -115.257482)
(4001.780364 -66.89852259 14.27438318)
(4432.70859 -122.9997949 -107.4232596)
(4590.403036 -12.22460089 -46.8525481)
(4450.282856 136.6527399 -122.8234985)
(4133.454208 -101.5944807 -134.1563433)
(3769.781348 -55.57415692 -147.7008371)
(4525.345618 -114.9017879 -165.7402945)
(3695.018825 31.53771805 -302.337555)
(4738.062683 30.67829478 -74.56782781)
(4820.45251 128.9110742 25.57588759)
(-216.1952863 -118.0858998 -432.334302)
(1586.360609 216.708678 -186.0893408)
(6114.388295 92.57627519 -92.79968674)
(6136.057477 107.6446487 -20.28003201)
(6143.679463 97.32850673 8.175229754)
(6161.12334 93.76312141 -4.11729574)
(3419.226745 -111.2123687 -344.6515504)
(2871.780761 89.13554063 -232.859113)
(2438.030232 2.859228674 -128.3657939)
(6012.722666 -29.46963212 -17.13531604)
(4736.733437 135.1212267 -183.5554908)
(3739.360507 161.2272854 -139.4615184)
(6081.893783 -13.33572552 18.21795744)
(4689.17355 163.8396117 -63.00803908)
(5596.224501 -109.2950069 13.17206955)
(3916.27331 10.5074317 -196.7530885)
(5769.393626 -165.9357653 31.74434992)
(5193.316407 -215.8454467 -97.37274701)
(3729.439882 12.40209603 -119.3119032)
(4836.203418 114.5295897 31.93163389)
(5868.762275 94.42212795 52.47147689)
(4701.714955 -22.97148768 -9.77368797)
(3034.562017 202.2710295 -165.2736942)
(3939.618383 -71.71556829 -197.1287919)
(5656.212347 18.34847371 11.67698581)
(4308.909878 -245.8634293 -228.9457102)
(4487.818788 38.98020389 -136.3166786)
(4695.477235 65.72539794 -76.31109556)
(3703.635319 205.5813677 -106.0924042)
(4246.277238 19.79609548 -130.1126468)
(4301.920102 261.6499524 -80.78086583)
(3483.809309 43.96786342 -121.2953698)
(3056.452247 -280.3986135 -139.2550669)
(5090.051353 14.63339837 -159.6492125)
(3783.746008 157.8087349 -129.6163903)
(3107.604167 191.8661763 -202.4772638)
(3088.04113 105.026539 -232.3581395)
(3187.772884 -69.2953364 -142.8615796)
(3100.130069 126.8629784 -195.2446257)
(3929.565757 151.7885502 -103.21333)
(4335.590533 38.96557027 -173.5011342)
(5442.041344 -137.0667149 -53.96149778)
(90.80675128 123.3839665 -241.5470511)
(6049.000198 -23.47446561 -38.36510162)
(6072.776907 -5.465333312 -25.17123278)
(6103.609893 81.64009847 -39.39007008)
(6066.755245 89.01469421 -42.06420993)
(5960.732571 -36.82321547 8.29981482)
(4884.651342 -135.5120566 -88.17305499)
(2895.124225 27.71159677 -258.4377443)
(6046.687755 176.1201734 -28.76739464)
(5283.230573 89.21059235 -155.5755898)
(4598.083716 156.6690222 -203.87911)
(5189.895045 148.7063134 -170.0579556)
(5934.870329 94.62441024 -80.23156046)
(4371.924656 104.7822016 -355.7467353)
(5541.721085 63.17712163 -221.6790561)
(4582.786286 -67.46271524 -298.7370469)
(5546.746194 -245.3572211 -158.6928549)
(4831.676568 -165.0590096 -87.44013556)
(3925.276541 217.8978751 -256.6785073)
(4458.192156 320.6805822 -129.021249)
(5683.378464 215.9327705 -59.83357563)
(4518.846938 -34.1023934 -112.1946416)
(3836.736743 -22.53268267 -131.8324255)
(3138.948352 -31.97636047 -237.5428614)
(3810.217303 -63.47024958 -178.4862239)
(3155.415726 -122.7974175 -264.3573787)
(4021.901173 106.4920723 -73.4922588)
(4131.753255 -64.75953423 -211.3047866)
(3841.064977 -73.27614997 -249.0520829)
(4470.232637 102.0741098 -316.0448019)
(5093.904352 91.36104284 -236.1052197)
(4598.670776 -42.1098542 -134.7468821)
(2630.009993 83.61929176 -131.3706297)
(2949.947908 70.30325952 -94.06040284)
(2645.257687 188.392102 -79.22096323)
(4138.038486 149.9975351 -100.3800606)
(3600.047288 -94.43573414 -194.0768009)
(3783.19354 -4.719976726 -43.9287257)
(3774.350575 129.4987337 -90.76615808)
(3761.320977 -36.73274424 -192.8461915)
(4910.923179 -48.69965582 -77.37040094)
(5700.773925 -94.41357161 -42.58764928)
(-203.0845159 -474.8604478 -134.0938535)
(6097.350907 73.37718543 -78.82855643)
(6156.49033 96.8587114 -87.76153085)
(6158.055201 79.62780027 -101.0183312)
(5347.360502 33.24409692 -54.55074006)
(4779.181955 -26.48633055 5.543886308)
(4814.618009 -61.64952728 43.55543671)
(4977.064195 -48.80359837 50.13055123)
(5105.715593 -39.99838788 55.49055422)
(4497.81056 -57.95365516 -13.12506242)
(4756.674235 103.9749391 -134.8648172)
(5285.275396 79.51153948 -95.02756762)
(5942.855823 -24.25540489 -41.59996779)
(4077.542774 -69.56468381 -119.1279038)
(4665.750961 150.1333145 -173.1032501)
(3920.471642 -134.269915 -163.6321135)
(5536.185065 -202.4927467 -150.0983799)
(4110.577057 128.9073508 -100.2932699)
(4832.574006 4.454697893 -33.71726139)
(3287.885698 91.33602072 -114.3795906)
(5104.188823 -118.7352333 -67.58042075)
(3802.797686 -102.561594 -165.5158971)
(4008.887958 152.8643441 -171.5484413)
(3031.868615 277.656591 -168.2699012)
(4414.898919 -72.1136696 -107.0626922)
(4299.693214 -63.83798655 -25.08319898)
(3850.532112 24.26700983 -208.8100915)
(3854.500179 -115.6844954 -134.5009414)
(4040.895307 39.129942 -237.1383475)
(3567.428236 -156.2866812 -158.3236494)
(4767.908628 -428.0600552 32.10382792)
(4566.3158 -74.81822219 -61.28387099)
(4355.51386 -115.1480644 -21.02569689)
(3553.111291 -24.78993336 -125.3018246)
(5444.779593 -56.67786483 -61.7848608)
(5022.402092 179.8379522 -83.43518611)
(4398.797578 87.68990931 -56.78199746)
(5551.718375 -59.9338211 -129.6500683)
(3892.16544 -186.8482472 -265.3016528)
(4385.156874 -176.1557842 -165.4237431)
(4383.849512 -263.6875525 -130.2816472)
(5185.042947 -24.16751254 -2.185593014)
(-129.1178008 -346.0928186 -539.9271761)
(5871.747872 170.7622876 -145.4202749)
(5844.056556 -44.29435684 -83.45455542)
(5915.311207 -48.30308046 -104.9780613)
(5966.904873 -19.20946736 -36.18594438)
(5975.254782 -8.388813098 -16.27435635)
(5120.492917 119.3862522 -95.11447029)
(5906.101905 95.01981653 -32.23302698)
(5146.758145 40.14385655 -13.32616712)
(3683.082332 94.35186697 -283.3918336)
(5772.397901 116.7447515 -210.2389398)
(5845.255719 -80.00405864 -148.4030643)
(5782.969586 -115.1188424 -85.46427954)
(4536.232921 -58.66905258 -52.91296311)
(3093.346104 34.41398288 -251.3647457)
(3882.527149 -90.96791064 -245.0604314)
(3757.956485 -215.7374514 -173.8589027)
(4376.759245 93.25672704 -178.1648821)
(3244.898152 -36.18550801 -124.9302344)
(4027.171982 74.70048937 -68.66341237)
(5703.091896 -91.25111347 -31.78087766)
(4699.349689 -209.5138723 -58.97117856)
(4994.482289 126.9590625 118.0771603)
(3966.869339 79.01702043 64.85399892)
(4064.216466 74.48693559 -162.3822879)
(5197.447153 58.79742509 6.156130517)
(4207.396776 -267.6450807 -192.5915768)
(4505.034232 78.62292759 -141.181972)
(4000.626131 31.50310908 -192.9237612)
(4799.83839 56.17086566 -200.618479)
(4961.800929 197.3838299 -189.680797)
(4789.546882 3.050290497 -133.5746669)
(4162.631045 -85.88512295 -118.0692964)
(4282.149894 -51.68933571 -207.1362302)
(5649.866394 -23.98904508 -129.1867462)
(4342.37243 -42.06541873 -117.2896134)
(5112.690926 -5.268893861 -124.4255555)
(4973.510961 -122.9914897 -97.98367736)
(4192.85308 -155.2273881 -121.7084372)
(3488.896302 -81.68642714 -178.8961296)
(4114.015045 -56.78071465 -335.7403112)
(5488.25042 27.94188648 -183.2033703)
(-577.296714 -46.41967997 -695.9842603)
(5855.311827 68.18453962 -112.7603323)
(5879.10184 27.11966017 -42.79390246)
(5974.134637 1.069274078 -59.36780696)
(5972.269847 -27.23365999 -54.51261739)
(4919.542257 49.01034126 -77.24894365)
(6006.717171 -6.215476726 -13.58769216)
(5492.095258 46.11142401 -110.1397594)
(4055.656858 126.6051875 -122.6501333)
(5808.846302 223.3318769 -38.94691067)
(5024.675999 266.3225947 -142.7584329)
(4999.039228 315.0292307 -227.078007)
(4204.689953 -100.013814 -137.7516509)
(4966.071364 -13.30117323 -183.281958)
(5956.212116 59.18356041 -14.93024867)
(3628.261715 -111.2770762 -81.85165863)
(4591.051741 159.775319 48.80012832)
(3328.869829 -158.6854032 -280.6590591)
(3945.08368 207.6225112 -150.8553019)
(4973.267089 -220.6510892 -143.5380855)
(5262.285333 -88.59340527 -284.3317728)
(3941.107513 -288.86753 -299.9527817)
(3677.280596 -190.0791464 -118.9224074)
(3367.244228 67.47198313 -144.6498484)
(2691.912065 226.3488666 -203.3583861)
(4125.212338 -12.53066447 -1.448154646)
(2564.134844 -57.93198304 -157.3755475)
(4610.405942 -149.753322 -100.6053173)
(3394.986706 -119.9286203 -228.4792952)
(4378.02225 84.75546632 -281.117264)