/*--------------------------------*- C++ -*----------------------------------*\
| =========                 |                                                 |
| \\      /  F ield         | OpenFOAM: The Open Source CFD Toolbox           |
|  \\    /   O peration     | Version:  v1706                                 |
|   \\  /    A nd           | Web:      www.OpenFOAM.com                      |
|    \\/     M anipulation  |                                                 |
\*---------------------------------------------------------------------------*/
FoamFile
{
    version     2.0;
    format      ascii;
    class       scalarField;
    location    "3.996/lagrangian/dsmc";
    object      ERot;
}
// * * * * * * * * * * * * * * * * * * * * * * * * * * * * * * * * * * * * * //


68423
(
3.345367711e-20
1.302959271e-20
4.365185978e-21
5.499122672e-21
3.456702545e-20
1.217215622e-20
3.288134506e-20
1.789491969e-20
3.697039976e-21
4.770927679e-21
1.870807014e-20
6.438734371e-21
7.181225556e-21
1.089797317e-20
1.529330235e-20
3.213305723e-20
3.09249881e-21
1.450064852e-20
1.357722478e-20
2.009327921e-20
1.095224505e-20
2.683054897e-20
1.855004303e-20
7.149092324e-22
1.291386995e-20
7.128040401e-20
6.539625005e-21
8.456875791e-21
1.944871512e-20
5.144511585e-20
1.068765544e-20
3.072506198e-20
3.268337599e-20
2.468982577e-20
1.210636179e-20
1.03254672e-20
8.197009014e-21
3.237419204e-20
5.864211298e-21
2.551453955e-21
3.036493123e-20
2.532998892e-20
3.188346217e-20
1.949007481e-20
2.180795459e-21
7.381408914e-21
2.090092453e-21
1.435788761e-20
4.704622753e-21
4.170041778e-20
1.187360716e-20
1.14258778e-19
8.551431102e-21
7.54670636e-20
4.954614886e-21
2.365173354e-20
6.799495887e-22
4.433488125e-21
1.287550033e-20
2.008768506e-21
7.401173026e-21
1.003588972e-20
1.593980137e-20
4.38170671e-20
1.85604107e-20
1.551978149e-20
1.498500364e-20
1.79329076e-20
4.874353602e-21
2.230640428e-20
1.086107338e-20
4.566346745e-21
3.914988192e-20
3.043030652e-20
1.347083773e-20
5.417632815e-20
2.791499624e-21
3.507822993e-20
5.438181236e-20
4.467866576e-20
2.086837639e-21
2.495425501e-20
2.30046663e-21
7.816245001e-20
3.624300246e-20
7.658482841e-21
6.789943234e-22
1.284916768e-20
1.002244096e-21
4.694999382e-21
8.121505241e-21
5.049480018e-20
1.253063527e-20
1.666193255e-21
4.36323986e-20
2.427683432e-20
9.478317071e-21
7.380950449e-21
7.854686738e-21
1.312485867e-20
2.249493561e-21
2.273282229e-21
1.106235858e-20
8.115742834e-21
1.018983385e-20
5.624887408e-21
7.946389357e-20
2.0008377e-20
3.003566469e-21
8.397821222e-21
9.683269359e-21
2.601480812e-22
7.131748969e-21
1.578935268e-21
1.189883046e-19
3.135913736e-21
4.111023422e-20
1.92213929e-19
9.096524019e-21
6.291506457e-21
1.882444086e-20
1.564805022e-21
7.169469538e-21
3.350793534e-21
5.024007403e-20
1.779286507e-22
3.080544978e-22
2.63923977e-20
1.718146427e-22
2.030326081e-20
9.277945114e-21
3.336732111e-20
1.550359942e-20
3.279005927e-20
1.490259023e-20
6.430193013e-21
3.484253187e-21
5.07409684e-20
1.976062321e-20
2.668720923e-21
6.963515936e-22
8.818432547e-20
1.268924943e-20
1.372227944e-20
1.998104532e-20
1.87255119e-20
3.48246303e-20
3.944455737e-20
8.077647656e-21
2.201887175e-20
1.977951819e-20
3.060219749e-20
9.351396545e-21
4.727779724e-21
7.234346612e-21
7.77071495e-21
1.323263685e-20
5.061636793e-20
6.619360851e-21
3.739350053e-20
4.746048758e-21
1.445831762e-20
7.162163946e-20
1.892567241e-20
1.155866647e-20
1.673878514e-20
9.177824789e-21
1.818002257e-21
3.414825948e-21
2.789432508e-20
7.438785809e-21
1.8445218e-20
6.707825769e-20
1.344562363e-20
6.618356224e-20
2.879916362e-20
4.710078524e-20
5.465632367e-20
2.360069861e-20
3.662891298e-21
1.12139141e-20
2.88385665e-20
7.172029188e-20
3.356027457e-20
1.329388043e-21
3.552086323e-20
7.956656986e-20
5.873722786e-20
1.336709529e-20
1.467071043e-20
4.62368218e-21
2.285691997e-21
2.863399548e-20
6.777003452e-20
1.517151945e-20
1.836317952e-22
4.49942127e-20
7.827770835e-21
4.579873346e-21
4.180778911e-21
7.845440308e-21
5.79922785e-21
5.839158716e-21
4.061170992e-20
4.349259378e-20
5.682378665e-20
8.823219192e-21
3.245500801e-20
1.043657602e-20
1.322038627e-20
4.535999721e-21
1.510441555e-20
2.391840018e-20
2.090603155e-20
1.002054802e-20
3.955661016e-21
6.208669834e-20
3.904511198e-20
1.043497622e-20
6.121782023e-21
4.658455793e-21
8.19482006e-21
4.354713392e-21
9.241400113e-21
2.722549212e-20
1.641106218e-20
1.779507621e-20
3.450744232e-20
2.632800563e-20
1.466255281e-20
9.17502935e-22
1.14462457e-20
2.916928148e-20
1.544411639e-20
4.894885068e-21
3.294506921e-19
8.083891264e-21
4.613558609e-20
2.798026353e-20
4.335931889e-20
4.843126449e-21
2.037002072e-21
2.33828932e-20
5.238387365e-21
6.979564695e-21
3.039509976e-20
1.361958176e-20
5.035698553e-21
4.814198566e-21
1.477589455e-20
1.193441858e-20
2.657549606e-20
8.044858355e-20
1.251744058e-20
1.032321e-20
1.436267667e-20
3.888166915e-20
1.885341994e-20
1.340659697e-21
3.961370635e-20
3.864671834e-21
1.125122167e-20
1.243729215e-20
2.18848757e-20
2.843676087e-20
1.015143094e-20
8.828660908e-21
2.256093821e-21
1.015995521e-20
2.543063846e-20
1.042952973e-20
4.594671489e-21
8.431706315e-21
6.976175994e-20
4.430918486e-20
6.463259474e-22
5.659511186e-21
1.236410419e-21
1.139767743e-21
1.819550187e-20
3.321955472e-20
1.541183652e-20
1.038482664e-20
4.718759795e-20
6.771157565e-21
4.24697297e-21
2.219083321e-21
1.47132884e-21
2.062685524e-21
8.454496113e-21
9.912520703e-23
1.256322456e-21
3.796544163e-20
1.573940968e-21
4.516320939e-20
3.043797822e-20
2.098787877e-20
3.549154833e-20
1.661731856e-20
1.497058759e-20
1.760258897e-20
1.974129803e-20
9.475420496e-21
1.899384222e-21
1.918873342e-21
6.100288165e-20
1.838364939e-21
9.362739676e-21
2.163539583e-20
1.279888531e-20
5.675168352e-21
2.154295385e-20
7.678827086e-21
1.463194118e-20
1.162511501e-20
1.781467369e-20
1.690403737e-19
1.103680312e-20
4.765645719e-21
5.627934903e-20
1.309557176e-20
6.985123548e-21
4.434062689e-20
6.184364433e-21
3.996332615e-21
6.088280916e-21
2.467687055e-20
1.117553504e-20
1.964524324e-21
1.762784415e-21
8.911927081e-21
3.289584816e-20
8.333669545e-20
1.200354932e-20
2.356126071e-20
8.157809952e-21
9.74636166e-21
7.641344503e-20
1.379255044e-20
1.574636386e-20
5.11074814e-21
7.145238312e-20
1.526493143e-21
5.876006955e-21
2.428211173e-20
3.929329895e-21
3.182536335e-21
2.89655041e-21
1.004297294e-19
6.439142444e-20
5.500126739e-20
5.022800304e-20
3.682387153e-20
1.424632293e-20
6.762805737e-21
3.191171959e-21
1.381038805e-21
1.547277916e-21
1.19623372e-21
3.475229859e-20
1.078511702e-21
1.160270995e-19
9.277047084e-21
2.410598937e-20
1.540117948e-20
1.922065157e-20
8.604983169e-21
1.001840567e-19
1.313115028e-20
3.60270995e-20
1.987936729e-20
1.964673542e-20
6.626006115e-21
2.040228545e-20
2.417299896e-22
3.298856753e-20
1.424473739e-20
1.825734966e-20
5.878893996e-21
5.562851417e-21
4.802499682e-21
6.683737884e-21
6.790081389e-21
3.978280299e-22
7.05388027e-21
5.4223915e-20
7.404411549e-21
3.160472589e-20
6.199148383e-20
1.707884867e-21
3.60711508e-21
3.130902511e-20
2.204166416e-20
5.926410121e-20
7.578407696e-20
8.66323626e-21
3.138983304e-20
3.296281812e-20
1.784046436e-20
2.206339814e-20
1.07715026e-20
1.152202369e-20
1.113298556e-20
2.080242063e-20
1.329734542e-20
2.322797727e-20
2.098921645e-20
1.365033461e-20
3.837216219e-20
1.381218096e-20
1.57208818e-20
2.017600542e-20
1.217483761e-20
5.935999024e-20
3.669394403e-20
2.974448532e-20
6.81775783e-21
1.209280721e-21
2.820905132e-20
1.127202911e-20
1.733288682e-20
2.908600711e-21
2.655324187e-20
1.094253571e-21
4.290254722e-20
7.0452355e-21
3.059280425e-21
2.017891711e-20
1.661085492e-20
4.316209784e-21
7.624279802e-21
8.884727914e-21
8.463378835e-21
6.680170025e-20
3.246804285e-21
2.134896395e-20
9.005903538e-21
3.98403425e-21
1.53111002e-20
9.860932358e-22
1.207556337e-20
4.138489474e-20
6.055756361e-20
1.47148998e-21
1.044687451e-21
2.83535869e-21
2.347757089e-22
1.044048865e-20
4.325051284e-21
1.004024762e-21
1.908846656e-20
3.084668258e-21
3.41158675e-21
1.308832275e-20
1.884446742e-21
2.744817465e-20
7.752081609e-21
1.459209065e-20
5.408445794e-20
7.219288975e-21
2.672144623e-20
9.866960338e-21
1.811088466e-20
7.767871119e-21
3.340954058e-21
3.788888108e-21
2.538845247e-20
2.62866398e-20
8.569861093e-20
1.598701299e-20
4.016017277e-20
1.409968134e-19
3.312229116e-21
1.174139304e-21
1.242216999e-20
7.058569858e-21
1.766273215e-22
6.064029887e-21
1.179872243e-20
5.541874781e-22
5.209550786e-21
7.100017805e-21
8.24356968e-21
1.645018435e-21
2.349342118e-20
2.355706613e-21
1.344447909e-20
2.853709496e-21
5.587132641e-21
6.161243557e-20
8.839010856e-22
4.941566034e-21
1.099231607e-20
2.534748732e-20
8.524573146e-21
1.044265577e-20
2.572621786e-20
1.347793041e-20
4.362206625e-20
1.593059468e-20
5.999183694e-21
1.911894762e-21
3.197576729e-20
3.852674738e-20
4.391507937e-21
1.173433748e-20
5.060731269e-20
1.319080189e-20
1.37065476e-21
1.970954139e-21
1.572940377e-20
1.339670061e-21
1.416539437e-20
1.614437398e-22
1.955713972e-20
2.683293825e-21
2.281958035e-20
3.566593989e-20
4.501281963e-21
2.133069456e-20
2.056074471e-21
2.698964094e-20
3.02142239e-20
1.058282035e-19
8.583318739e-21
1.371376459e-20
8.045156269e-21
1.777888436e-20
4.437469936e-20
5.267026722e-22
2.470390008e-20
4.87954975e-21
2.127355976e-21
5.901476834e-21
8.761632747e-21
1.857374471e-20
1.85733128e-20
2.388347339e-20
1.301928374e-21
2.536079897e-20
3.787170006e-21
2.308868285e-20
1.596941678e-21
1.000818219e-21
2.638277849e-20
1.619662784e-20
5.026501438e-23
1.780978623e-21
2.560725571e-21
2.222731546e-21
9.065296564e-21
1.311747352e-20
5.014958816e-21
1.126691262e-20
9.537594255e-21
3.227051536e-20
8.195259449e-20
6.698773184e-21
9.417631895e-21
3.600706726e-21
1.521164452e-20
7.535060649e-20
1.754586491e-20
1.650592862e-20
5.687989874e-20
2.87729301e-20
1.199126938e-20
1.146513154e-22
7.802581223e-20
4.663227254e-21
4.182479499e-21
2.508668737e-20
7.124112644e-21
4.22623031e-21
1.363689054e-20
3.484215919e-21
3.58799789e-21
2.763974911e-21
1.375333995e-21
1.62113888e-20
1.402061694e-20
8.79030356e-21
3.965537936e-22
6.822234235e-21
1.116875042e-20
8.916122022e-21
1.350282816e-20
4.054635962e-22
2.434820434e-21
3.2516004e-20
3.713969419e-23
3.078510169e-21
6.919852055e-21
1.416847584e-20
1.598181688e-21
2.394480961e-20
3.818961263e-20
8.459184427e-21
4.577749715e-21
5.251855996e-21
1.156902097e-19
5.035533657e-21
1.23259296e-20
7.634116508e-20
2.462458737e-20
1.683345508e-20
8.579627907e-21
1.968251184e-20
1.668274648e-20
2.004542354e-21
1.263054646e-21
8.517310272e-21
3.890580464e-20
1.848046032e-20
5.742693097e-21
6.957809629e-22
3.146825891e-20
1.678910025e-20
9.69022005e-20
1.417820108e-21
1.862848406e-20
8.535185693e-21
2.343043633e-20
1.703798444e-21
6.473312519e-21
5.764847476e-20
7.335469981e-21
2.349132964e-21
6.903370023e-21
3.580917752e-20
1.873319945e-20
2.171912551e-21
4.500278344e-20
5.225100203e-21
4.930469238e-24
2.493245798e-20
3.384088608e-21
7.699184054e-20
5.736993874e-21
8.696694785e-21
2.964197921e-20
1.687955783e-20
6.90029526e-21
3.06339927e-21
5.023025504e-20
4.329375876e-20
7.861096371e-21
5.596310255e-21
1.075580992e-20
1.277207838e-20
5.333392241e-22
1.335304652e-20
1.906506126e-20
7.033991091e-20
5.253672888e-21
4.952566644e-21
2.796445902e-21
3.005668641e-20
3.266319314e-20
2.568350861e-20
3.18413455e-20
1.238934176e-20
1.208144727e-20
6.184497887e-21
5.491762061e-20
8.722643137e-21
7.028133585e-21
1.803031794e-20
8.339197533e-21
2.221775392e-21
1.226472646e-19
4.796150514e-22
2.831478356e-20
7.349962172e-21
4.044062472e-20
6.990405817e-21
5.367587715e-21
5.418157618e-20
2.897782537e-21
2.022638088e-21
3.123616462e-21
3.522252247e-21
5.456575382e-20
6.333671901e-21
1.253813951e-20
4.853152066e-20
8.493456187e-20
3.068278672e-22
1.778609442e-20
8.096414716e-21
2.092015763e-21
6.155852664e-21
4.158135135e-20
2.986057435e-20
4.423265675e-21
2.454991144e-21
3.234454198e-20
8.061219103e-21
1.26988193e-20
7.648698517e-21
9.190016471e-21
1.395027491e-20
3.227042875e-21
2.143070121e-21
7.32606339e-20
1.004838743e-20
9.575770645e-21
2.748892881e-20
2.534083215e-20
1.423902133e-20
1.299212629e-20
5.030629919e-20
4.796731754e-21
1.258278274e-20
1.058341259e-21
2.508906512e-20
3.954872453e-20
1.806163809e-20
9.379202983e-21
1.160645825e-20
6.685659372e-21
6.800667489e-21
4.586131948e-20
3.003991769e-20
1.450270766e-20
4.604039912e-21
1.115624225e-21
5.883526875e-21
2.762189933e-20
2.016199781e-20
1.75977515e-20
1.966022012e-20
3.342924935e-20
1.399067426e-20
3.145404753e-20
1.177185631e-20
8.696791709e-21
2.333840062e-21
5.174369144e-21
4.088557389e-20
2.180779473e-20
1.671670668e-20
5.787245783e-20
3.215993236e-20
3.226213798e-20
1.288174972e-20
1.506009471e-21
1.558438816e-20
1.183574845e-22
8.641573922e-21
3.17495777e-21
2.260722431e-20
1.000239049e-22
6.208765462e-21
2.79995142e-21
4.177535667e-22
6.843901558e-21
2.213580744e-21
3.988323255e-21
1.087338697e-20
3.319706664e-20
8.725322932e-21
2.251294584e-20
3.364358209e-20
4.738350365e-21
8.86093396e-21
3.705668845e-20
2.662958849e-20
3.001054451e-20
4.434795073e-21
7.184387403e-22
1.248989194e-20
2.03383032e-20
9.740846527e-21
1.040546878e-21
8.480423606e-21
6.298932325e-21
3.807405828e-20
8.384059344e-21
2.029178801e-20
2.045136907e-20
1.647547151e-21
1.040648863e-20
6.887212803e-21
1.708150503e-20
7.268687134e-21
2.221239374e-20
1.976454054e-20
6.088324498e-21
1.177548344e-20
6.285385833e-21
2.436448726e-20
1.487106043e-20
3.103581e-20
7.362156256e-21
4.995187105e-21
1.92048039e-20
5.341177372e-21
1.194475659e-20
2.868161181e-20
2.433844025e-20
1.806498239e-21
1.362258443e-20
1.543404569e-20
8.709560414e-23
7.154125203e-21
3.265054831e-21
2.108860357e-20
7.277239136e-21
5.536605807e-21
7.301668229e-22
1.639271243e-20
2.601953774e-20
8.149424117e-21
5.474089658e-21
1.380190003e-20
1.429533212e-20
1.105564873e-20
6.925361426e-22
7.751006536e-20
8.057838755e-21
6.112591764e-22
4.41648193e-21
1.793142654e-20
1.729236781e-20
5.088774691e-20
3.31515555e-20
1.076951979e-20
2.109156537e-20
1.795359958e-20
3.964921019e-20
9.207055376e-22
3.852978423e-20
1.61078314e-20
1.846662456e-21
3.062734299e-20
1.646228205e-20
6.367584444e-21
5.975402879e-20
7.47392772e-21
2.056104827e-20
5.135269827e-21
1.904218588e-20
2.875643465e-20
1.498646635e-20
1.033274654e-20
8.497758828e-21
2.560003704e-20
5.175201928e-21
3.110479589e-20
1.316362534e-20
8.404575749e-22
5.966724836e-21
1.134576911e-21
1.036526137e-20
1.242594783e-20
3.992643384e-21
3.541805484e-20
5.565203865e-22
4.624081363e-21
2.978359062e-20
6.696340533e-21
1.798035522e-20
1.53179181e-21
5.560363937e-22
4.325274644e-20
4.40081105e-21
1.306420258e-21
2.329830806e-20
3.898903278e-20
3.802882733e-20
1.041654853e-21
3.854981634e-21
4.161208313e-22
2.844872085e-20
2.103358557e-20
6.627236702e-20
1.043616434e-21
4.59970413e-20
5.593120591e-22
1.104721211e-20
3.832512052e-21
6.660389984e-21
5.376175528e-21
2.759414849e-21
7.37898861e-20
3.029594377e-20
4.412917551e-20
2.89594335e-20
3.023388976e-21
3.010921623e-20
3.78691547e-20
2.1777962e-20
4.097452163e-21
9.972590605e-22
1.449677431e-20
4.24650319e-20
6.732845789e-21
3.606598608e-20
4.944644106e-20
1.705095484e-20
2.846202419e-21
4.902999721e-21
3.997661114e-20
9.210983586e-21
1.604471991e-20
1.415734883e-20
1.022823478e-21
2.040716219e-20
1.357265193e-20
1.750463528e-21
6.900755059e-21
3.633685061e-21
1.454261084e-21
1.362928821e-20
1.883020034e-20
8.696434197e-21
3.227182133e-21
8.863417912e-21
1.552219632e-20
7.932160058e-21
6.090408116e-21
2.385351015e-21
3.562007276e-21
6.959110775e-22
4.531042378e-20
7.073273572e-20
3.159726754e-20
9.819571729e-21
1.305062881e-20
1.459344565e-20
3.143972382e-20
1.332088068e-20
1.091746815e-21
1.153544996e-20
3.626530799e-20
4.983766953e-21
2.038698044e-20
1.006077902e-19
2.048972657e-21
1.670904332e-20
1.303051502e-20
4.773599345e-21
8.952617429e-21
7.874329239e-21
1.414238133e-20
1.841539635e-20
3.962614426e-20
5.207521028e-21
2.164416339e-21
5.187248839e-20
1.08694217e-20
6.19326746e-21
5.996332392e-21
2.899571182e-20
3.825727135e-24
9.986660971e-21
1.711911298e-20
4.080747419e-21
1.923342683e-21
6.691165159e-20
1.763864751e-20
4.070250134e-21
2.723332727e-21
1.219368464e-21
4.842534166e-21
8.932149035e-21
4.704684486e-21
4.397902872e-20
2.616882009e-20
2.560997346e-20
3.274744446e-20
1.766017086e-20
1.505298278e-21
1.247607348e-20
1.285799658e-21
1.688687212e-20
2.7413855e-20
1.267051166e-20
1.375696257e-21
1.709138841e-20
1.505828614e-20
2.326274477e-20
4.229986442e-22
4.802064467e-21
2.454352379e-21
6.637689986e-21
1.235164048e-22
2.487618201e-21
2.762469391e-21
2.100712996e-20
2.250063464e-20
1.433527157e-19
9.089439647e-20
2.69670649e-20
2.057735372e-20
2.827032764e-21
1.070283281e-20
6.890592748e-21
7.503242546e-21
2.715585432e-20
1.216751005e-20
7.659868867e-21
2.092927522e-20
1.511661507e-21
1.689282297e-21
4.081901989e-20
5.341304028e-21
3.587643873e-20
3.592167286e-20
5.086638486e-21
7.987686647e-21
3.959588085e-20
1.033402719e-20
9.079717741e-21
2.128049469e-20
3.779607838e-20
1.345375022e-20
1.721856272e-20
1.277091261e-20
1.138021355e-20
4.538465732e-20
2.452286562e-20
2.74074053e-20
3.709333342e-20
3.038356899e-20
3.097502162e-20
7.801673266e-22
1.17424959e-20
9.564978301e-21
4.041009278e-20
1.341360191e-20
1.340646368e-20
2.634750899e-20
9.772684406e-21
1.408140349e-20
1.802101839e-21
7.06576097e-21
1.108439901e-20
4.902001475e-21
1.888211092e-20
1.276809253e-20
2.874250092e-21
4.675457307e-20
3.560016695e-20
1.097872248e-20
3.995013929e-21
7.654124573e-21
3.501843877e-20
2.342589883e-20
5.83973295e-21
4.85270356e-21
2.37690466e-20
1.678700358e-19
2.879382878e-21
7.318523255e-21
5.449805022e-20
1.442935264e-20
1.735607427e-20
2.563647572e-20
3.836096655e-21
3.80755885e-21
5.904471961e-21
1.018633733e-20
8.94516423e-21
2.169616609e-20
1.14245362e-20
9.369348779e-21
2.289974643e-20
9.818331112e-21
2.805576079e-21
2.587123855e-21
3.147410224e-21
4.638136296e-20
1.65885121e-20
7.777354044e-21
2.260664507e-21
4.244849536e-21
2.281818029e-20
3.367109442e-20
1.372973542e-22
2.425722136e-20
1.349280839e-20
2.139770969e-20
3.590305527e-21
1.277645403e-20
2.838275806e-21
6.274011469e-21
4.471645216e-20
5.280231136e-22
1.106569434e-20
5.785790374e-21
2.35320712e-20
1.570580481e-20
2.731340306e-20
2.391438213e-20
1.436087374e-20
5.561115584e-20
3.451653258e-23
4.022327017e-20
4.123936353e-21
2.403995708e-20
2.90933477e-20
6.236154002e-21
1.203518822e-19
2.352697338e-21
1.818455088e-20
3.247459222e-20
8.604871918e-21
5.594223551e-21
2.446301675e-20
1.11097706e-20
2.485980215e-20
2.73653612e-21
2.936132423e-20
1.431652564e-21
1.208091589e-20
2.694422118e-20
8.228632742e-21
1.045162239e-19
8.803148873e-21
8.182906438e-21
1.374500721e-20
6.128334447e-20
2.521524134e-21
3.840784178e-21
9.677317988e-21
1.422881982e-20
4.035739725e-22
3.113548296e-20
4.612157726e-21
9.063039107e-20
6.738989606e-20
1.580509166e-21
1.069390472e-20
2.343152411e-20
2.243134232e-20
6.071707239e-21
5.009749747e-20
4.861650834e-21
1.165060359e-20
8.189459265e-21
9.797959879e-21
1.774824045e-20
1.119566116e-20
4.802070416e-21
8.009681948e-22
6.69432441e-21
3.878185196e-20
6.105913869e-22
1.128871061e-20
5.644376418e-21
1.947928368e-20
2.025994283e-20
2.280655994e-20
2.056687595e-20
9.562823513e-20
6.2747233e-22
1.393184642e-20
7.877685674e-21
2.167486261e-20
5.648738834e-20
3.15691135e-21
3.85149789e-20
5.755960443e-20
3.579247711e-20
3.656959022e-20
4.412577741e-21
2.26364058e-20
8.235681831e-21
1.162816091e-20
4.728290909e-20
1.130450672e-20
1.770680634e-21
1.135024998e-21
3.076412552e-20
3.740310078e-22
6.228839358e-20
2.200017791e-20
2.864104825e-20
1.361752979e-20
2.407032307e-20
5.269630771e-21
8.242818525e-20
3.870659093e-21
3.996556371e-20
4.929601863e-20
1.209124301e-20
1.655924049e-21
6.044969453e-20
1.443297326e-20
2.426949776e-20
9.550046681e-21
1.038328297e-19
3.466897188e-21
5.211778349e-21
1.710254166e-20
3.209870053e-20
1.194155384e-21
7.711343901e-21
2.37300228e-21
1.319158098e-21
4.712756682e-21
7.3362844e-21
3.757105848e-21
2.905552166e-22
6.241052474e-20
5.167034024e-22
7.292371709e-20
1.261875528e-20
3.303665718e-21
2.184160699e-20
5.180112008e-20
1.538080016e-20
3.723399035e-21
1.820318271e-21
1.29012665e-20
9.687075868e-21
7.910646225e-21
2.538917545e-21
6.932813472e-21
1.263134223e-20
5.909419345e-20
1.6650948e-21
1.391628271e-20
2.244657966e-20
5.640376734e-20
3.026075295e-20
2.315597487e-20
3.055736536e-21
3.336861456e-22
1.540078788e-20
1.626373459e-20
6.310506071e-20
1.01546492e-20
3.383191739e-20
1.392914105e-20
7.878853907e-21
1.362774077e-20
1.043807849e-20
4.933893953e-21
1.616051334e-20
1.416743587e-22
2.764884684e-21
1.158108072e-20
1.155803671e-20
2.9529389e-21
1.571222933e-20
1.226439774e-20
4.175385742e-20
4.706926156e-21
1.552539383e-19
1.111252846e-20
5.255262032e-21
1.614716556e-20
1.765812805e-20
1.551819148e-20
3.876107982e-21
7.5658772e-21
1.182161986e-20
1.840134492e-22
4.854975181e-20
5.693707045e-20
1.178102484e-20
1.953486409e-21
1.494196137e-20
6.375350317e-21
9.173146518e-21
1.671945758e-20
6.443928563e-21
4.902780627e-20
7.610370539e-21
3.742233038e-20
2.857022184e-20
1.053035364e-20
8.977798312e-23
1.745386007e-20
7.806307904e-21
1.475829346e-20
1.911843177e-20
2.189407785e-20
2.547237266e-20
3.817618057e-21
2.053555386e-20
5.057777871e-20
4.795567967e-22
1.51860532e-20
2.553554015e-20
2.267492003e-21
1.011206586e-20
2.97273862e-22
1.553684274e-21
2.307306618e-21
3.583005158e-21
6.119648382e-21
1.668625221e-21
3.872284571e-21
5.995458937e-21
8.042317351e-20
2.3039507e-21
4.923115801e-21
2.050841137e-20
4.447997994e-21
2.548855609e-20
1.600342463e-20
1.3815465e-20
5.88479032e-21
5.05931019e-21
1.135258352e-20
5.238056407e-20
1.062794692e-20
8.304080327e-21
1.314348627e-21
6.603312019e-22
1.942936946e-23
9.876780252e-21
1.357603207e-21
7.053408515e-21
1.063699804e-20
1.381604886e-20
1.749701886e-21
4.722724459e-21
1.38992718e-20
3.548465756e-21
9.257887647e-21
1.148152618e-21
7.399289209e-21
2.328674341e-20
5.469152833e-20
7.756329981e-22
4.084790423e-20
5.178193721e-20
9.929374953e-21
2.05730094e-20
6.083033489e-21
7.837442845e-21
2.839526147e-20
1.903836485e-20
2.798265436e-20
3.532697242e-20
8.746510665e-21
1.103871413e-20
4.888678084e-21
4.811486453e-20
1.71040955e-21
1.99899448e-20
1.705222554e-20
9.077576455e-22
3.386130101e-21
2.052938418e-20
1.625832939e-21
9.70984444e-20
4.180749384e-21
5.193925705e-22
4.175173282e-20
3.311205476e-20
1.498506578e-21
4.673540357e-21
3.664557711e-21
2.102936431e-21
1.575657113e-20
3.898677609e-20
1.840119943e-20
6.677264326e-20
4.265108372e-20
7.601515176e-22
2.867696437e-20
1.373326594e-22
1.872062124e-20
5.845104784e-21
1.690933058e-20
1.898816707e-20
6.237903625e-21
4.568710981e-21
1.392746552e-20
1.602879751e-22
1.019381994e-20
5.117916841e-21
1.22013816e-20
3.607358518e-20
1.664249855e-20
1.943610594e-20
2.551557024e-20
1.799240293e-20
3.444108812e-21
4.617883587e-21
1.309274883e-20
2.073874719e-20
2.328062199e-20
6.565691957e-22
1.029338715e-20
2.582662414e-21
3.25882738e-20
1.093190643e-20
3.812003196e-20
3.163820455e-20
2.3578331e-21
2.131633039e-20
2.191858854e-21
4.366268186e-21
2.126432157e-22
1.427156301e-20
2.313661085e-22
3.475815525e-20
1.256777018e-20
6.918452499e-22
2.655629998e-20
1.709496066e-20
2.005751788e-20
9.731927721e-22
2.932147227e-20
1.915172761e-20
8.726473063e-21
6.17552455e-21
2.208744119e-20
1.018803604e-19
9.871963647e-21
3.30019457e-21
2.145282254e-20
9.112888191e-21
5.266347073e-20
1.323548217e-20
2.164914169e-20
4.909432068e-20
1.436760424e-20
1.16633418e-20
1.617065816e-20
1.06909658e-20
1.721763318e-20
1.314795928e-20
1.308959407e-21
2.521492613e-20
6.645132497e-21
1.715606497e-20
4.706844586e-20
2.727767093e-20
2.112248952e-20
1.364724644e-21
5.596759562e-20
2.755582087e-21
2.800641589e-20
2.946783578e-20
3.544185874e-21
1.557478943e-20
8.71762045e-22
1.078577418e-20
1.099724119e-21
2.628455322e-20
3.217050055e-20
1.837758747e-21
2.175649125e-20
2.356272102e-20
3.092846389e-20
1.177478957e-21
4.803529838e-20
3.179748194e-20
4.942229306e-21
6.6508952e-21
1.612081065e-20
1.182575894e-20
1.311064921e-20
2.619110046e-20
2.011025007e-20
4.542961291e-21
5.610508232e-21
2.169061267e-20
2.850022638e-20
3.556739525e-20
1.04344745e-20
1.822494544e-20
4.02841153e-21
9.164560895e-21
2.121384014e-20
1.285931023e-19
2.040738463e-20
1.39086811e-20
7.865543642e-23
3.026893094e-20
6.225670394e-21
8.206866602e-21
1.235695837e-20
1.194415772e-20
1.842146877e-20
2.664269983e-20
1.731431226e-20
4.715326171e-21
2.274283042e-21
8.479308138e-21
2.221385161e-21
2.703327914e-21
4.318079927e-20
3.516937944e-21
9.946174759e-22
6.474929551e-23
1.018868256e-20
1.177606025e-20
3.208077415e-20
4.196326301e-21
2.353299611e-20
4.380220799e-21
9.127507379e-21
4.706502241e-20
1.091253907e-21
5.809876456e-22
4.511661674e-21
4.558276346e-21
1.016095489e-20
8.299342445e-21
6.595147988e-21
1.223568224e-20
2.441834108e-20
1.945532312e-21
9.320301649e-21
3.156059455e-21
5.005549691e-22
1.500797266e-20
1.623903438e-20
1.687917292e-20
6.277037575e-21
1.151456196e-20
7.570754014e-22
7.589869937e-21
2.580569458e-21
1.475051454e-20
2.512578262e-20
1.868687906e-20
9.501133394e-22
1.054533427e-20
5.687272065e-20
3.687693805e-22
1.651025098e-20
6.90944683e-21
3.094585852e-21
1.703722984e-21
7.397292722e-21
5.551716523e-21
6.332641429e-21
1.161094779e-19
5.80187987e-21
1.01166473e-20
3.053210501e-20
1.899492451e-21
1.432351593e-21
1.421133408e-20
5.943585804e-21
4.078119117e-21
6.278898739e-21
2.125975176e-20
1.161370298e-20
5.459202678e-20
2.501933671e-21
2.568352846e-20
1.612131598e-20
1.140981749e-21
7.736324907e-21
2.19871208e-21
1.278444296e-20
1.197680516e-20
3.672093771e-20
6.063865121e-21
2.813999625e-21
4.593799968e-21
2.111559041e-20
9.80293379e-21
3.611567104e-21
1.843638747e-20
1.62932212e-21
7.17161174e-20
5.062339315e-21
5.695087007e-20
3.825252813e-20
5.163023994e-21
5.167157234e-20
2.575312839e-21
3.166336776e-20
1.835607158e-20
1.696405514e-21
4.99600886e-21
5.447067067e-20
4.681716316e-20
3.180977727e-21
2.962213805e-21
1.178982392e-20
1.927940586e-20
2.221250739e-20
8.608444812e-22
1.207636306e-20
1.667476953e-20
5.002723748e-21
1.83532184e-20
8.543719789e-21
2.779699436e-21
1.365528788e-20
2.294520954e-20
6.479670364e-22
5.593620354e-21
1.334563104e-21
2.207556171e-21
1.678476119e-20
4.684795001e-21
3.277891714e-20
1.453527408e-20
1.797205273e-20
1.495535178e-20
8.498842418e-22
3.490400569e-22
1.53083151e-19
7.27893901e-21
1.488329609e-21
8.161600587e-21
2.163071362e-20
1.74778411e-20
5.815811787e-21
5.954646001e-20
5.296796325e-20
4.147995344e-20
2.706960796e-20
1.141698746e-20
4.831069974e-22
4.353331766e-21
6.898340274e-21
3.128317659e-20
2.114235745e-20
3.553953111e-20
6.179302219e-21
5.104404394e-21
8.024692654e-21
2.654175883e-20
2.284422248e-20
4.250366682e-20
4.661587881e-20
1.333817269e-20
6.400179687e-21
7.149861416e-20
1.149829251e-21
1.111226147e-20
1.352624042e-20
4.873679194e-20
3.548464522e-20
6.789617047e-20
1.98852844e-20
2.339357503e-20
9.393158102e-21
8.67907586e-20
3.623334854e-22
2.734043832e-21
1.662063429e-20
2.674732837e-20
1.73423857e-20
6.472608842e-21
1.105299593e-20
1.163533715e-20
2.292022592e-20
2.983516316e-20
1.003116684e-20
2.051859594e-20
4.105873806e-21
9.93495905e-22
5.285664412e-22
5.734267136e-20
6.328728366e-21
1.736870894e-21
8.259465821e-22
2.374723564e-20
2.780611645e-20
4.737644427e-21
2.972799672e-20
1.060485183e-21
1.438289899e-20
3.396646867e-20
2.657836532e-20
5.172465804e-21
2.116109119e-20
3.509551113e-21
1.873636625e-20
9.672544307e-21
2.07533391e-21
4.31229383e-20
8.803477492e-22
1.019742392e-20
1.89817736e-20
9.779372917e-21
6.176614003e-20
3.618185677e-21
1.611864368e-20
3.544860911e-20
3.409521479e-21
4.964267245e-20
1.72359557e-21
4.315178086e-21
3.303957433e-21
2.769974512e-20
1.59000218e-21
6.946754969e-22
1.630122224e-20
6.519483247e-21
3.787481946e-20
2.038034917e-20
2.454112727e-20
1.613015234e-21
1.515169095e-20
1.783680361e-21
9.540993101e-21
4.01082487e-20
5.68412824e-21
1.123054272e-20
2.616140902e-20
1.613061042e-20
3.023755531e-21
6.193403863e-21
2.679451321e-20
3.714987092e-20
5.81627492e-22
2.076248559e-20
1.234057378e-20
2.715435096e-20
2.137618871e-20
1.28954139e-21
1.473020559e-20
1.864388172e-20
5.18349037e-21
4.228876715e-21
3.270567518e-20
8.168362104e-21
8.203016639e-21
7.00508688e-22
1.881373637e-20
2.060904494e-20
2.224581785e-21
3.053687285e-21
8.862586818e-20
2.301712487e-20
1.123057859e-20
8.150785948e-22
3.594683821e-20
5.786226314e-21
1.132372356e-21
2.228061379e-20
1.260615012e-22
1.881707027e-20
1.174660164e-20
1.054016298e-21
3.063344246e-20
3.252826669e-20
1.198471164e-20
3.946814828e-20
6.063774017e-21
6.12356939e-21
1.90830266e-20
4.733290257e-20
6.690235281e-22
2.480264928e-22
4.57623498e-21
3.346812311e-20
8.361394541e-21
2.506127944e-20
1.988503345e-20
3.420621245e-20
1.837361531e-20
1.171494523e-20
4.708283654e-21
3.044885646e-20
8.669455383e-21
3.981680311e-21
1.261590616e-20
1.919422549e-21
1.022884338e-20
1.159692784e-19
7.33044895e-21
9.142186952e-21
5.104967304e-21
3.383947321e-21
1.722044792e-20
1.639872638e-20
1.911239968e-20
1.378927091e-20
2.424307038e-21
2.139719673e-20
6.168313575e-20
1.343113382e-20
6.098988745e-22
1.783174351e-20
6.400858362e-21
3.080628988e-21
5.580663333e-21
4.693777921e-23
4.283002661e-21
4.597773787e-21
6.188692898e-20
1.35985059e-20
2.923605216e-21
1.819937796e-21
1.093458363e-20
6.944495914e-21
2.425546119e-20
2.168052661e-20
3.201022217e-20
1.98287929e-20
1.801512586e-20
2.254107303e-20
3.137477409e-21
1.684972892e-20
8.111551916e-21
7.764791415e-20
1.18938102e-20
6.033766428e-22
2.374284869e-21
4.327249469e-21
2.342381446e-20
3.670260365e-20
4.507334289e-21
1.323946747e-22
1.554836576e-20
3.397396467e-22
1.048965508e-21
1.546281097e-20
4.182190992e-21
7.167739393e-22
1.630699148e-20
5.372005775e-20
2.021454298e-21
4.336857658e-20
1.39664364e-20
1.585746401e-20
2.596066509e-21
4.716223275e-20
2.028291112e-20
1.946737879e-20
7.464064646e-21
3.237255371e-20
1.85180879e-20
5.891702314e-20
1.919106434e-21
2.797838014e-20
6.706146181e-21
2.494043085e-20
3.189036497e-20