/*--------------------------------*- C++ -*----------------------------------*\
| =========                 |                                                 |
| \\      /  F ield         | OpenFOAM: The Open Source CFD Toolbox           |
|  \\    /   O peration     | Version:  v1706                                 |
|   \\  /    A nd           | Web:      www.OpenFOAM.com                      |
|    \\/     M anipulation  |                                                 |
\*---------------------------------------------------------------------------*/
FoamFile
{
    version     2.0;
    format      ascii;
    class       Cloud<dsmcParcel>;
    location    "3.996/lagrangian/dsmc";
    object      positions;
}
// * * * * * * * * * * * * * * * * * * * * * * * * * * * * * * * * * * * * * //

68423
(
(3.200485674 9.767191126 3.825421162) 7713
(6.322999253 -4.606104183 1.751213488) 3993
(-9.375215501 12.2378352 22.63060608) 40001
(1.183562329 15.93962064 15.32954221) 28014
(9.417312155 -0.9183413094 2.512000598) 5744
(12.22330742 16.8937665 22.45029164) 40191
(1.359043551 -0.827946481 12.08632408) 22114
(-8.527793538 -14.77658516 25.44320042) 44096
(-0.5680517222 5.066740704 0.01253461751) 2770
(1.015296597 11.79294731 16.30378181) 29578
(4.667768415 2.621977143 12.77228908) 22243
(-3.795344563 -11.03995425 6.219447797) 11703
(-3.062708248 -0.6424166036 23.87055258) 41215
(5.858736882 -6.031445134 27.0105859) 47910
(-9.787236786 -18.88551429 28.07903547) 49123
(8.648370415 1.101800956 14.28922199) 25705
(7.712505207 10.22029937 1.80552449) 4561
(0.5761822129 4.193047232 13.49332827) 24087
(5.850587972 -11.35679922 27.942554) 47700
(-7.854465953 -10.71646254 3.140935567) 6946
(-9.046775558 -8.548515196 8.896473322) 14997
(6.007848824 -10.80720784 25.06588805) 44279
(-12.18467539 -2.611061904 6.776188555) 12030
(-11.79350176 -1.682454792 10.12603217) 18531
(-11.37674497 -4.544896026 0.6242035333) 2379
(6.921142941 -2.233928054 3.415023759) 7261
(-3.989818357 -10.37389933 5.72986526) 10142
(-5.791343813 -9.633729885 4.537148581) 8580
(3.549488329 12.33201547 8.918140207) 15798
(4.880313519 -4.963242709 16.63807294) 28941
(-4.637909619 1.167165788 1.168321448) 4210
(-6.841588774 2.042545821 1.499569655) 4246
(-11.02070274 -2.21208413 19.62182864) 34205
(3.148858501 5.903284378 4.79364677) 9158
(3.945499423 -3.80479113 10.87688999) 18462
(-0.8430013556 -9.660438912 15.93132095) 26994
(2.077429297 -10.20046049 2.723726112) 5360
(10.36972519 -4.717525688 8.586773041) 15169
(6.890217432 1.935489758 20.13764107) 36095
(3.586236847 -2.427012937 15.60959761) 27288
(-18.66136698 14.94920131 20.74487401) 36612
(-1.102765892 8.597255142 13.18630163) 24253
(-1.791947351 6.032499323 1.369937839) 4403
(-9.196247559 2.305657572 22.16813873) 39585
(6.489422577 6.143668452 1.939056645) 4411
(5.269867194 2.248662547 19.37452289) 34400
(12.78947342 16.95035857 20.78225299) 36727
(0.1147551805 12.59757483 7.556136007) 14199
(8.248836469 -0.4935222407 18.98059339) 32561
(-9.994453299 -3.240053522 4.66483318) 8803
(0.560812657 9.506083975 16.61757807) 29493
(4.350799637 7.903001022 9.235968346) 17215
(14.30344331 -11.11164155 21.77733002) 37317
(20.82926217 11.58730989 27.52725289) 48649
(10.0472689 -5.161208806 2.502961681) 5555
(1.529633092 -3.214966595 23.60627247) 41104
(-10.35697759 -3.265256892 14.38426322) 25504
(-8.727402115 1.801644387 14.51459664) 25694
(-0.1202865478 -7.49578583 0.1780546922) 2276
(-12.90221506 6.546632925 14.12227641) 25890
(-14.29457638 -1.941430393 15.77102078) 27312
(-10.13860344 18.7938894 23.61621855) 41984
(9.114235653 -3.045689404 7.758320579) 13610
(-10.19711913 6.08604814 4.287958094) 9182
(3.410068125 4.121300018 25.14862909) 44874
(11.33865491 -5.227098177 3.106878859) 7152
(8.104980158 19.80565735 19.67713471) 35117
(-17.13828178 -11.48867986 17.39070212) 30357
(5.017362068 10.31755894 13.2568579) 24344
(-12.22603181 12.88951958 21.55091659) 38266
(-18.91854968 7.972881088 24.51360692) 43246
(-8.930903131 9.114959254 0.9748055183) 2913
(-6.562125419 -6.685204032 1.359777943) 3904
(-10.42858071 -4.410507669 1.015060726) 3976
(-0.6335854837 11.90850058 17.76247161) 31308
(4.135380425 7.839664879 8.151130183) 15619
(4.736665517 -9.921454061 16.21318611) 28731
(-1.231240754 -11.70598264 19.80938997) 33837
(-3.086912753 1.459744967 0.1297428883) 2615
(-8.987195826 -9.830868987 3.996843747) 6981
(3.109020305 -18.55868626 20.16637492) 35280
(-8.949993039 -1.149024032 5.812667051) 10476
(14.34671543 14.95832612 19.28585959) 34913
(8.254532989 15.45319982 25.77268597) 45341
(18.40192612 -3.417599524 27.85924208) 48049
(9.757242269 -4.849664907 12.32756842) 21954
(-15.46932368 -19.24559353 15.68001072) 26559
(3.035068669 -8.868533101 8.236374769) 15010
(-13.62169041 8.750792092 24.46504765) 43293
(16.68474616 9.464197105 21.63916822) 38169
(-0.2674300239 -9.109495461 4.22409991) 8585
(17.74389758 -0.6715017138 14.69898444) 25642
(-0.5496978022 -3.450401148 0.2004467543) 2428
(-9.054738519 2.159524225 9.22234767) 17011
(-5.889336333 8.874601895 0.7845818787) 2879
(16.24602839 -2.696820299 22.36375156) 39425
(-10.51915888 -14.27289082 14.09375815) 25042
(4.207812611 -2.619132096 6.022343899) 12047
(-2.254812403 11.16908851 0.8460742474) 2990
(3.448257527 -6.561055622 21.20140721) 37516
(11.42364263 -0.861535397 15.06598497) 27368
(-8.526515485 7.085780427 11.63280024) 20676
(-8.459369544 -4.901605751 14.7551421) 25464
(-19.56324643 -2.003985521 27.05786048) 48053
(5.808489848 -10.18852323 5.546886846) 10151
(3.064622771 13.16519183 14.44057975) 26200
(9.360364039 -6.212569224 4.187839473) 8708
(0.6825234626 11.38877844 0.1791074263) 2993
(-6.551373544 1.01977238 23.46360081) 41284
(-2.236060953 9.854420111 9.519254126) 17283
(-6.531931564 -2.511339325 26.86773324) 46334
(-2.528305586 -12.74357685 8.115917909) 14862
(0.1948964272 6.770695076 9.479342533) 17173
(2.018096505 4.482105021 20.09476163) 36213
(9.444326652 -6.124762141 7.624451067) 13496
(7.601883232 -0.4328499657 7.704373877) 13722
(5.274920045 -7.550991283 0.6213847439) 2282
(1.280369501 4.497837023 2.587627783) 5926
(-4.789094246 -10.72390528 24.29203436) 42536
(10.91692981 5.932444371 5.955187759) 10761
(12.77215019 2.067047937 1.330961308) 4265
(2.332791883 -11.95343194 1.140004229) 3729
(6.26278837 5.578311092 15.62566519) 27599
(2.638723722 11.61650184 2.062004334) 6187
(-6.171401872 8.336633816 1.309417865) 4474
(-16.42216842 19.47787061 19.96609606) 35092
(-3.957641366 6.357709355 23.41304733) 41487
(-9.001368824 -6.776953159 22.50571787) 39235
(8.49753021 3.907802442 3.883722934) 7491
(-12.29971606 -1.627593637 5.298334125) 10472
(11.86323548 -11.79133433 21.72145812) 37314
(-14.50342069 -1.186437946 23.61322324) 41168
(5.992703679 -5.348315939 0.5401218071) 2358
(10.30238569 3.232980621 11.35443241) 20527
(5.592835887 4.085901103 14.90501222) 25824
(3.8106317 3.417119966 12.6921968) 22284
(6.374835349 -2.454382224 9.536063429) 16837
(15.17447578 -17.68494203 27.26151375) 47458
(-9.623555007 -6.477712021 0.7059990299) 2305
(6.363894883 10.46235207 23.68710492) 41665
(7.114997828 -8.194147609 10.86357356) 18256
(-3.30623714 -9.743851587 11.46598763) 19967
(2.583098098 -12.85843968 9.523373748) 16463
(-8.258004675 -5.831818753 11.42687108) 20130
(-10.30431006 -7.370268796 13.0333981) 23572
(14.70906577 -5.360459232 25.44692881) 44497
(5.803507115 12.84578713 18.8663202) 33088
(-12.39039221 0.1247985373 11.04162878) 20378
(-17.18562074 10.19744915 22.26312574) 39909
(1.676580323 -11.98950371 23.29582387) 40768
(-5.986233831 18.50042691 20.13033252) 36793
(-10.89314007 14.25563888 20.76047838) 36620
(-8.708979809 7.34083171 1.20751859) 4434
(-8.440615451 -9.361711946 6.082240205) 11769
(10.79375229 -14.40353549 25.8208662) 44115
(-12.54161157 2.028516387 0.5954666957) 2644
(-18.26010055 -19.68904697 25.03231188) 43876
(17.04179411 11.86027662 27.19580368) 48646
(11.95289893 -2.432961211 5.912586107) 10458
(14.04003114 -1.51893729 24.87467562) 42923
(20.89642713 12.17208144 28.21259825) 50455
(-0.7690985852 8.245797118 18.91373152) 32914
(5.501646357 10.66994428 3.811923859) 7751
(-4.737461798 -11.64548294 2.178655069) 5318
(-6.817803102 4.175689616 0.764226103) 2726
(8.564695973 7.711359109 15.94929483) 27685
(-4.428271085 11.98544633 8.751140047) 15756
(8.277907103 15.43885893 14.06283057) 26289
(-16.04022922 10.63652175 14.38861165) 26054
(-14.22270865 5.23551754 21.59956355) 37970
(-11.05943175 -12.912708 22.10340981) 38981
(5.957304164 -3.400466629 6.42279498) 12010
(8.721140868 5.125779658 2.377395447) 5971
(5.811720039 -8.640796874 5.122853399) 10224
(-8.242308412 11.59951043 15.82294887) 27836
(20.63470597 -4.945614655 28.1949565) 49741
(9.16257171 -0.7819955181 0.4042388612) 2552
(-2.79384229 11.7548747 2.094959204) 6182
(-4.922397588 -10.72594873 2.018597626) 5353
(-17.32624442 16.30729702 17.16229198) 31501
(-2.583444777 -9.230588798 2.903145453) 5391
(-3.905276642 17.44584002 23.65558686) 41949
(-3.025841995 -11.39905569 20.0228171) 35567
(12.5563127 -5.311126662 12.89376568) 21915
(1.568883026 -12.38763473 1.568836084) 3694
(4.458423546 3.052843818 13.59999561) 24049
(-15.23110752 1.6943308 27.82789298) 48203
(-7.973222542 12.03053802 15.13697281) 27879
(-10.12745701 4.463967732 1.076098013) 4318
(6.727001373 12.48334782 28.34601401) 50441
(9.21571387 6.090872992 5.465051322) 10798
(-14.74483228 2.058717604 20.19779652) 36116
(2.681901155 3.115061654 25.64895293) 44831
(-14.14702615 -5.829196021 22.21323878) 39272
(5.242826547 -7.162123158 16.75683479) 28816
(0.8767256139 -12.80914072 7.523626335) 13269
(2.71069433 9.13504704 19.77123409) 34691
(6.746474739 -8.682963624 17.79061169) 30507
(9.76666669 1.670752095 15.0037299) 27438
(-11.39963185 8.329025192 18.42557381) 32903
(-4.665760769 -20.76938412 23.32544221) 40384
(-9.211471066 4.397382601 1.291152103) 4319
(4.051923532 9.504004944 7.387440843) 14098
(4.655385356 0.9191610326 19.68473691) 34325
(-14.01880441 3.520593072 18.51051619) 32690
(4.482969857 -6.138708697 26.2292107) 46177
(-1.064849167 -10.47657365 12.09255625) 21691
(-5.018635993 2.078677145 20.92702114) 36125
(-10.05215785 10.0206737 28.39063043) 50340
(5.959432349 10.46990851 20.84332661) 36468
(-4.801601287 5.707540148 11.93663482) 20596
(-10.66253625 -8.101786258 22.77745811) 39150
(-4.386855715 8.356237007 15.33559482) 27714
(9.508837177 8.385371505 1.222278346) 4490
(-1.322772322 -8.99697792 11.82101733) 20011
(-12.69761542 -3.50237763 5.043868401) 10396
(6.560127375 -12.75055115 16.01337767) 28607
(-12.66742513 -0.9627964183 0.9516880476) 2530
(20.12443925 -7.940967109 10.96871703) 18311
(-14.30845845 -12.88598409 17.58717314) 30318
(13.81652263 -11.77590493 19.08751879) 33852
(4.197746772 -6.975481711 18.86951707) 32321
(-2.288916499 -6.675232421 11.92202638) 20094
(8.851889119 6.773395627 1.068283326) 4413
(1.383810707 9.35668916 9.976709794) 17287
(-0.8878053827 -6.316828518 10.80006706) 18332
(-12.51813329 3.831078683 5.099440778) 10662
(-19.14329838 2.685725977 24.04591072) 43039
(-3.650646806 -8.770967383 0.4734392548) 2235
(2.694593558 9.68379898 24.47409586) 43351
(8.905651257 9.471126717 19.55040017) 34697
(-19.55672404 -1.179308595 23.65190824) 41163
(3.913995952 -8.440872338 21.43905597) 37432
(5.329368103 -9.629371304 0.5845568624) 2207
(7.534648568 -3.595738334 3.351516958) 7224
(1.078155835 -3.289738504 1.734230582) 4026
(-17.3202296 -14.70139791 19.30072305) 33695
(2.211668026 -12.72969369 2.801993891) 5291
(9.227566017 9.778852464 20.14760615) 36430
(-11.70021274 -11.84835617 14.10051411) 25167
(8.739892932 -7.239408629 2.384777371) 5477
(8.074561788 3.867569 11.6438142) 20525
(10.82995989 -9.027857751 14.86775017) 25273
(8.187939421 -8.365050167 13.82289131) 23549
(15.05241157 -9.913446454 25.36908957) 44330
(-1.852956425 -11.15103556 2.149073765) 5321
(-8.135858371 8.927430471 24.36208606) 43298
(17.06323967 -11.43838968 16.94504541) 28660
(4.825244256 -6.105071343 24.9116005) 42713
(-7.388206959 -14.22020128 20.98827384) 35437
(-9.383426115 10.45110932 11.56417138) 20801
(16.60873174 4.132733404 24.59570307) 43155
(6.181435737 2.053186463 4.773527164) 9047
(-16.49178428 -12.78202155 19.05210913) 33780
(6.31816267 10.26954168 5.956487198) 10944
(-12.55807293 -2.101928715 1.921553057) 4050
(-18.12841902 -16.59585184 17.55820765) 30146
(-10.73089232 -1.744916715 14.28025659) 25584
(-1.214130106 12.75005502 6.052184346) 12601
(-11.19391477 5.154721363 0.1514193825) 2759
(-7.070405949 -9.362780066 9.442708229) 16558
(-6.827686437 1.281158198 20.22833124) 36088
(-11.14958618 -1.652543055 2.279649426) 5685
(7.837196445 12.1337362 23.04499282) 41750
(-4.708188387 10.20459123 7.807755454) 14125
(-7.589046286 14.99895074 24.17535537) 43551
(-3.734666787 -8.53367809 20.65409351) 35693
(-10.10544463 2.249096443 17.87635223) 30924
(4.692948867 -1.756249719 19.71014919) 34253
(10.28217106 6.690828189 2.374541072) 6011
(-8.773512664 8.171864689 6.628766231) 12452
(1.795796933 -12.26256824 2.769381656) 5290
(-1.270512251 -15.8523567 25.48821408) 44061
(10.27212012 7.847430212 6.488856587) 12433
(2.083023724 -16.74430408 14.64745906) 24971
(-10.52011522 6.747073485 26.3460737) 46676
(-1.82258206 -10.06507239 13.45616614) 23455
(-4.865393284 -4.781684934 12.39451061) 21940
(17.38274084 2.913165076 24.94704635) 43072
(-11.97137126 -5.546406176 1.598237298) 3937
(-7.081343471 14.94539017 18.52813391) 33159
(-8.954113348 13.82077524 18.00834979) 33116
(1.376180293 -12.22942024 8.369196753) 14866
(7.488113167 -9.800706131 21.2825133) 37394
(-1.624312453 2.068211996 8.560800355) 15423
(13.02201138 4.270632565 11.60255047) 20572
(9.862914903 -4.820455243 8.104347128) 15168
(-17.75743452 17.02197854 15.83731609) 28079
(20.93708942 8.409883914 14.87284656) 26007
(6.162866109 -10.17761934 3.449534428) 6960
(-15.22796143 -2.361844189 14.25422492) 25541
(12.87196281 3.716514401 3.954900351) 7495
(-4.175152764 -3.263503755 15.77412495) 27242
(-9.67272194 -8.321626731 3.879378466) 7017
(-7.799358462 -10.28972096 5.122284113) 10138
(-10.00131078 3.694675591 3.654046157) 7472
(1.41126393 -8.710839764 4.628653852) 8624
(2.126951793 -5.062319112 0.7173272584) 2355
(4.826511552 11.64475377 0.371892638) 2997
(4.702392574 -13.59931619 15.52200635) 26831
(19.65615736 -15.80674715 11.48490331) 19738
(-18.47316642 -12.22511775 19.7987069) 33778
(-4.741570616 16.92877057 21.20228605) 38442
(-5.331625053 10.89800972 6.033044269) 12528
(5.837220491 -19.57080756 18.36471177) 31776
(-0.8540035981 5.647511885 5.68950494) 10750
(-2.489945582 -4.215648248 15.20761091) 27202
(10.89932517 -8.220086674 11.94464201) 20023
(-4.426548285 -8.308569095 26.89356572) 46084
(-7.041168077 -6.061645946 1.321728615) 3903
(5.193188327 9.432157285 6.531415698) 12503
(-12.39376051 -2.866024784 9.923035973) 16818
(9.027312228 6.501129878 8.412545984) 15586
(1.766131756 -10.84268057 5.63860418) 10147
(-10.85747997 -17.46876677 25.46187878) 43968
(9.231670522 -9.041111091 18.6084452) 32200
(4.070931716 -10.60784598 10.14577535) 18169
(3.778797862 -12.79997772 3.188560206) 6888
(5.143959431 5.270761881 0.5697421464) 2776
(5.143750728 -1.975865679 21.03093828) 37718
(4.497121666 -8.916132584 17.36859692) 30505
(-3.420076992 4.807837127 27.27149998) 48331
(9.927519362 2.563381515 13.6462838) 24012
(-5.513056899 0.5528578218 15.31615724) 27393
(-16.92623476 -9.448347442 15.58894121) 26978
(6.999028294 6.529646397 25.22099909) 44961
(12.75933827 2.01338893 21.07816782) 37871
(1.420285597 -5.793783919 14.24877852) 25432
(6.771661441 -10.89387572 27.6296403) 47743
(-4.969378894 7.053623777 9.399044529) 17206
(2.829450782 14.51332836 16.02799745) 29705
(-1.612385303 -12.30912303 7.986541384) 13267
(4.42779415 -6.892377363 1.675749853) 3915
(12.25723537 5.347802059 11.21073443) 20613
(9.117653808 -17.41073601 26.46113247) 45720
(-10.57398256 7.433910436 20.20941814) 36326
(15.95472119 3.551775996 16.01412451) 29256
(1.177086267 -15.69618041 11.75022556) 19720
(13.29559507 -11.41991347 24.48318424) 42512
(9.117631342 -4.215293826 13.23877569) 23718
(-7.728449273 3.676402121 19.18063927) 34429
(19.32202254 1.445672222 18.1690551) 32644
(9.849107585 7.504536376 7.878020452) 14028
(-8.947886919 -5.528776195 9.718063794) 16708
(-6.838793587 -7.009238135 13.33379711) 23576
(-9.657510813 7.814034843 2.648684877) 6029
(-3.290040254 -4.593368752 17.027652) 30665
(6.512086689 -10.0549939 18.76672189) 32155
(5.396799415 11.63265374 12.58729581) 22622
(-7.824989413 0.1448364323 24.59237976) 42979
(8.910717225 -5.032271896 0.7920709738) 2361
(-11.85521482 -3.708263255 4.223404414) 8801
(11.77791107 -2.442909651 20.79056185) 35956
(-13.76694948 -7.582682643 18.96397116) 32261
(-10.66288686 -2.687754211 1.680367523) 4052
(12.69959048 -0.8976211322 5.348001245) 10535
(9.595471588 -6.642415185 2.949959484) 5516
(-10.48314091 2.467497523 17.70185293) 30924
(7.977449169 14.37383576 19.69236303) 34906
(-6.119506741 -2.48902281 7.011455989) 13632
(18.79715287 -0.09988061507 26.89193072) 46427
(-7.44735329 9.841556466 9.478908665) 17278
(5.235216311 -11.11835224 10.90492719) 18128
(10.84492573 1.981647681 10.20479957) 18679
(11.06991416 -3.31945344 6.138602675) 12016
(4.675089819 -7.154811311 14.77123888) 25351
(-11.42241334 -5.503848798 2.785213953) 5533
(-1.794650578 -9.503495812 0.5697139458) 2200
(9.023929905 12.07486191 16.70996213) 29628
(7.498377547 7.995271283 9.753413114) 17218
(-15.97712487 -4.079220464 28.83267081) 49705
(-1.788821322 -11.54419643 5.924600112) 10109
(9.865250404 6.714260371 6.578472016) 12394
(7.772467173 -6.289140687 11.42470046) 20104
(8.957586112 -2.15189568 23.63627234) 41149
(-7.097956565 6.686757069 2.627812792) 5993
(19.09878744 16.15014767 14.40337528) 26342
(-9.041462388 6.591623537 6.435119634) 12375
(-19.03326984 -2.49784294 16.73714902) 29001
(-9.469819657 4.721826008 0.7184374575) 2723
(-5.763475339 -8.294200447 17.84773849) 30495
(12.74574582 6.629728704 18.06494313) 32843
(5.090890196 9.275232841 2.97766196) 6119
(-4.198784664 4.542882723 25.88862128) 44866
(8.543630086 9.701556919 0.1052420552) 2930
(4.94292662 -7.392438763 10.47964398) 18295
(-4.835394407 10.31209172 2.407472089) 6145
(-10.22373376 -5.949229399 0.2175714608) 2342
(-12.02726884 6.849939486 21.29111448) 38014
(4.781076969 -11.77614982 3.213925325) 6923
(7.867335846 8.105749055 5.171660045) 10872
(3.891590963 -10.60718193 3.009149526) 6957
(11.18873818 -0.09546415758 8.043154808) 15322
(1.326316306 1.182960215 5.024856961) 10600
(-10.51562688 3.818400072 8.589513923) 15452
(5.842258614 3.532173804 20.81190473) 36174
(4.411752106 7.501489032 9.193592638) 17215
(12.4657 13.76456412 18.36213118) 33137
(-6.68339208 -9.188650932 11.20060987) 19964
(2.894058872 -7.822905791 7.236538976) 13451
(13.92199022 -6.023271881 27.45449276) 47918
(8.734840388 -7.503469245 3.147026614) 7073
(-8.596815524 8.315140645 22.30334497) 39834
(-12.6301224 -1.779105498 4.048130169) 8876
(11.49870569 5.749595893 7.484791983) 13954
(20.73327553 12.6626094 22.92672196) 40031
(-12.22942007 -0.4537881663 24.05499443) 42938
(4.367270536 -6.077103442 5.844882594) 10299
(-7.54004504 -6.828526981 0.6030409504) 2307
(2.691017202 -10.64271459 18.64134551) 32151
(-4.88301063 14.60378521 16.20877177) 29698
(7.72970005 17.1497186 14.00453906) 26372
(-11.59133282 3.240425393 24.07265567) 43085
(16.41220631 1.845633741 25.02985233) 44765
(10.46191406 5.711709586 9.264763099) 17145
(6.928524717 10.05112349 4.156448241) 9348
(-12.08196858 -6.809276647 15.19569698) 27108
(8.549362853 -3.619440322 18.75083923) 32451
(-1.280159569 -12.46256232 9.68010853) 16459
(11.78362419 -12.45127895 18.63626705) 32076
(3.995185474 -9.188477439 11.39443639) 19974
(-0.1799676726 6.109592271 20.80895523) 36294
(1.118866004 -3.577732658 23.56813648) 41104
(9.263895761 2.745587053 1.374889931) 4262
(-1.070984845 -16.03502223 20.98781168) 35359
(-11.38898551 -1.759218658 0.06856133285) 2493
(-10.48205927 -7.356062076 13.39009685) 23572
(11.96833984 3.217139461 4.19159747) 9090
(10.8635585 -5.295756711 1.40772854) 3959
(11.64112768 -4.439196089 3.79999595) 7190
(-6.486081206 -15.58285513 16.5284555) 28468
(-12.24148587 0.7770553952 3.40336937) 7356
(-5.054008123 12.32698451 21.57575582) 38273
(-1.765167596 10.79139001 19.74159183) 34729
(5.701812322 20.44017382 15.04273026) 28228
(9.205689166 2.973908208 18.17324742) 32672
(2.384591157 -7.49190187 25.64638432) 44401
(1.720106046 -2.761668713 8.479465502) 15236
(-2.792369779 11.73323267 7.261426504) 14162
(3.847806579 -11.54074439 6.257485031) 11710
(-4.394722009 -4.215359173 16.89998167) 28932
(-6.240636564 -1.816154035 18.51648153) 32516
(-10.39309541 -4.959099694 1.033936148) 3976
(6.735837908 8.614208957 10.33735091) 18969
(-3.720892703 -7.235304053 23.98477466) 40931
(10.07769537 -4.010457395 7.747374042) 13573
(-7.439234978 -7.684755212 0.1725337786) 2269
(-8.937387957 -4.722074425 4.542355977) 8766
(-13.47239806 -0.3700571855 17.84405757) 30813
(1.301927002 -3.576855576 18.83197424) 32444
(-13.7880561 -5.585317497 16.87798713) 28881
(1.328137492 -2.716795612 11.82411636) 20266
(-8.12243551 5.912748438 0.7394052888) 2762
(5.774232677 -9.076187221 0.7612910865) 2207
(-1.095588071 -3.920575181 18.91249179) 32441
(9.989796738 9.540554956 13.17789461) 24306
(8.995690571 8.232981903 10.57014393) 18971
(-12.17905284 -0.2066288808 2.465193864) 5722
(16.02451581 -2.665914354 23.5550983) 41157
(-5.689675236 -9.798633896 4.281173313) 8580
(14.98046758 -3.314128722 24.54426376) 42849
(7.995432886 -9.221299973 3.718716044) 6997
(-4.727528494 5.577478765 16.95417856) 29320
(0.5536913019 11.5800094 13.58487776) 24381
(4.62330289 20.21081336 26.22377631) 47279
(2.031107596 -11.1609079 6.164413205) 11709
(-20.59906655 1.382855601 10.99902968) 18648
(13.68342858 3.23970583 24.92706765) 43110
(13.65031658 11.05516751 23.01100468) 41714
(-6.356416477 19.565782 28.41735467) 50722
(2.209328363 10.00707485 10.46576409) 19049
(-6.760415313 -9.732203687 12.93693867) 21728
(3.43712366 7.527774764 22.27878646) 39804
(14.30470971 -17.11033723 25.8694975) 43993
(20.52232367 -0.5071945026 15.3727562) 27377
(9.545758821 -5.556164272 12.32736505) 21912
(-3.985053974 11.61825003 18.5928599) 33037
(8.752371374 6.468713744 13.58975791) 24179
(7.13470074 5.566140863 23.52911887) 41456
(10.43726319 -8.109365485 26.73921923) 46099
(-6.288838575 -8.795192587 1.111071986) 3828
(3.277042657 1.860470478 14.96609325) 25700
(-19.38217844 -0.07520865553 22.67326103) 39467
(8.936762455 19.26437276 19.94161831) 35117
(-6.890281487 3.66167332 23.88413619) 41358
(-14.31282344 -8.119890811 26.78332333) 46074
(-5.097099277 8.365771851 7.037873862) 14051
(-16.30144297 -3.518049629 27.59737873) 48014
(12.51071185 -3.416147059 3.567920109) 7229
(13.85167315 8.904670152 26.10680831) 46784
(5.016118188 -12.09222337 18.5469326) 32070
(-5.682546669 6.228448926 8.165526094) 15571
(8.949610842 -5.500553662 3.314706056) 7149
(15.9202206 -4.167810818 28.92588037) 49736
(7.197695753 1.490103988 8.522783654) 15394
(-10.2839831 5.585238796 2.716291984) 5952
(0.8364715346 -12.83592274 27.88560986) 47653
(-19.39901908 8.488452479 22.09011518) 39823
(-4.191851714 -4.412928506 26.34637904) 46252
(-9.468019373 -1.951069127 20.93861821) 35977
(-20.84775247 -10.07110475 18.13079857) 32128
(-12.03348788 -3.703184264 2.85290232) 5608
(3.596691316 -6.589656673 27.5261939) 47908
(12.63735371 -0.08433591895 0.7353795331) 2555
(1.746745666 -6.574531339 17.36639322) 30586
(-11.43946032 -3.488928038 12.04946647) 21975
(0.2171689801 -12.74996246 5.13093816) 10077
(15.58003255 -7.89682608 25.64383784) 44414
(1.273652947 10.51723861 2.497664252) 6151
(-11.07098604 -4.44841009 3.961762245) 7167
(-3.340812447 -4.419446035 25.84511492) 44521
(-1.049560895 -0.8784639454 0.1715678866) 2541
(-3.469683214 -10.92795062 0.8959190587) 2162
(10.48111203 4.155041803 3.14921385) 7531
(9.127384564 5.319162503 11.30298118) 20610
(-10.28930091 5.89958322 18.203878) 32778
(8.602060891 -9.675860969 0.7661257444) 2210
(1.962542632 -3.698525013 15.07824135) 27248
(-8.415219373 4.913743568 10.10002421) 18786
(3.511616331 10.97944647 3.209677374) 7749
(1.046442869 9.906025896 15.0881447) 27762
(2.547903016 12.26527686 8.615384438) 15797
(-6.117487188 -8.357572063 7.189945439) 13404
(-1.35204974 2.601192857 5.204564028) 10635
(-12.90293633 0.4298030203 1.990751625) 4164
(-8.874243762 1.965105156 16.45284782) 29158
(5.012049528 5.045328657 15.90857891) 27598
(3.411109653 7.978099042 11.72334468) 20688
(6.384593597 9.023249144 4.573107668) 9312
(-5.044612087 1.408969774 0.5326023345) 2613
(4.39839779 -9.08084641 10.52724243) 18211
(3.168590805 10.19622672 19.82621032) 34734
(-16.30378516 -12.16323392 20.5017051) 35512
(3.800798031 10.57736901 1.719678263) 4557
(-2.840380121 6.265880869 13.22978999) 24168
(2.174928042 9.686143314 8.18849369) 15692
(-5.138294856 -7.35281736 1.497748947) 3867
(-8.65723034 1.814049105 4.09642598) 8994
(5.995406506 -4.594676674 14.40292093) 25478
(-1.560566241 3.62604685 0.9363316192) 2693
(-12.84445875 1.78907193 1.188085916) 4202
(2.297785261 -10.58028295 11.46979067) 19931
(-4.345250836 3.392363778 21.62357093) 37896
(6.808299047 10.11708668 10.97700878) 19053
(8.228107654 -1.451969762 23.61523782) 41185
(12.22735912 -15.62324989 18.67236715) 31951
(12.52619812 -0.4043046168 6.868865266) 12131
(-8.001617653 7.77950437 18.43232992) 32864
(-2.253625683 -11.90692123 28.78503414) 49424
(9.164259746 -0.2946884644 24.04314098) 42954
(19.77239162 11.64558117 27.69806964) 48648
(-16.96677623 15.66230816 23.73986988) 41852
(1.357158771 -20.25406411 17.95131793) 29998
(11.19232406 -5.020276738 5.318598981) 10344
(3.424563382 5.555318885 3.528109833) 7562
(-5.161619025 -9.984692725 23.9967715) 40845
(11.89956606 -7.058106573 16.74171906) 28822
(7.483577302 12.92915232 28.12602898) 50442
(6.209261228 10.76029836 6.938904129) 12540
(-1.170122329 12.68724433 0.2943289153) 3025
(7.463393377 -2.564085957 7.031583067) 13646
(11.26503059 -3.338776599 20.81616453) 35918
(-1.292510092 13.97736651 25.8893849) 45247
(0.6149662735 12.24618607 11.51766261) 20895
(-18.23878265 6.115729885 15.16769776) 27616
(1.474227903 -12.15589277 5.482346076) 10078
(-7.051982963 9.612777894 3.959949231) 7702
(10.79080716 -6.826079221 3.71795931) 7113
(-10.10241337 -2.100237109 19.81426371) 34206
(-6.188064304 -8.280195208 1.52022482) 3828
(-9.47739953 13.63945456 12.71307136) 22691
(-11.25948216 -17.3553105 21.26667839) 37039
(6.279512999 11.87932191 24.34032248) 43439
(5.455958322 7.715479732 12.34431675) 22454
(-2.173106277 -4.989526924 11.6836741) 20178
(-5.044086226 -9.706019629 26.29063574) 46041
(0.4872947771 3.245302136 27.94766567) 48293
(-5.330799417 -11.68941085 8.686043642) 14893
(7.841940755 8.337590983 13.01344765) 24262
(-6.403874481 12.80939657 27.30376835) 48664
(-1.999450827 -12.15094065 2.889788167) 5287
(5.065324297 9.643040664 5.548757507) 10907
(3.80694184 -15.56254113 16.26132182) 28478
(19.71652132 -4.331546717 24.76298567) 42812
(-10.04457316 -17.24921752 28.14756974) 49164
(3.323316296 -10.04208669 14.04501377) 25224
(17.83552687 6.889047151 13.10517124) 24188
(-9.389803341 4.898332272 2.728765444) 5915
(-12.7417706 1.043752611 20.42835506) 36082
(-9.877865919 2.498051768 3.556050345) 7435
(6.463307274 -1.265020937 13.531991) 23841
(-6.107547586 1.773989982 16.91092393) 29160
(-8.250070422 -16.49777116 19.10545836) 33620
(9.302312467 0.7332552496 16.62171925) 29134
(-12.72256359 1.272504405 13.00364629) 23948
(-2.515205319 9.966241317 22.5391613) 39882
(-3.359090098 -15.74048956 12.79538013) 21479
(-0.9989153517 5.367087824 19.76462147) 34520
(-1.266061305 13.44989701 16.27875943) 29659
(7.03275871 0.2034963194 26.98958358) 46452
(2.468947845 10.27675539 21.41547943) 38197
(7.771178654 3.918614677 23.17496886) 41372
(-12.52046684 0.6986718184 3.347045393) 7356
(6.296254833 -7.425647415 2.210650899) 5475
(13.71768485 18.80397176 27.63459348) 48936
(2.695504673 -7.95529261 12.2191135) 21821
(3.341690194 -2.497341633 23.99277516) 41144
(-5.862759672 -5.600126158 20.02065889) 35817
(11.64737378 4.815395308 8.917900395) 15512
(-10.01470233 6.62968024 7.157019333) 13970
(1.894360255 11.33144869 0.5569462517) 2994
(-5.240728797 10.83705741 7.625572311) 14124
(15.48792424 -8.155252347 22.69899351) 39176
(5.893766144 3.282718088 3.907682854) 7488
(-2.082787228 -9.29771656 2.349494968) 5391
(4.68624232 -9.116959857 12.74898122) 21739
(1.224237892 -12.26375822 5.162314703) 10078
(-8.549707717 -4.369042219 7.888332641) 13554
(-2.121183485 -11.17850476 16.66524505) 28640
(12.07564065 2.455659242 4.133183894) 9053
(4.225093636 -4.613131166 9.472796961) 16759
(-11.71139726 -1.840582407 2.087243214) 5685
(-11.39913191 3.131590009 11.47609256) 20505
(-18.39081155 11.44739026 24.80220722) 43414
(0.57566581 -19.62220028 20.87187679) 35235
(-2.182006173 -11.50990222 3.921839844) 6916
(7.936378853 7.052855228 23.45703695) 41540
(6.421599804 9.923904033 8.050463562) 15696
(-8.822773632 -4.203393274 1.465185328) 3978
(-12.56576018 -2.370702971 0.3824348781) 2454
(6.278177423 -4.661557134 9.435780375) 16761
(-3.076364373 -12.30892562 6.145041216) 11669
(11.65062398 -4.844437824 3.501094287) 7190
(0.7638770527 11.35574561 6.444003055) 12569
(-6.908673762 -9.501244852 8.777920514) 14963
(5.885916499 4.56742908 1.431356001) 4334
(9.325558353 3.864526556 6.323174703) 12280
(13.35371042 2.71239044 12.58861088) 22252
(-7.882040653 10.14758612 6.959155825) 12526
(13.89970124 -13.57413505 22.07882315) 38964
(11.54162539 1.901491809 10.40241973) 18680
(-8.036491257 -6.549258115 8.946261188) 15074
(3.028015347 10.92176679 5.765927214) 10941
(6.50874149 4.42833549 2.05595483) 5931
(2.705812752 3.678133196 18.53700752) 32707
(-3.461380059 -7.97384919 10.47998612) 18287
(11.54921797 8.364504424 24.21045321) 43318
(-8.735234269 -5.151397753 9.76384972) 16708
(-7.644993103 -3.385959601 9.420875889) 16785
(6.516603747 9.640104036 2.214295089) 6120
(6.266915789 -9.157162454 16.61770175) 28733
(-1.963508482 -10.7381467 14.41929145) 25219
(-3.331649733 5.685420772 17.65389252) 31053
(-7.294713824 8.906439671 2.896573786) 6069