/*--------------------------------*- C++ -*----------------------------------*\
| =========                 |                                                 |
| \\      /  F ield         | OpenFOAM: The Open Source CFD Toolbox           |
|  \\    /   O peration     | Version:  v1706                                 |
|   \\  /    A nd           | Web:      www.OpenFOAM.com                      |
|    \\/     M anipulation  |                                                 |
\*---------------------------------------------------------------------------*/
FoamFile
{
    version     2.0;
    format      ascii;
    class       vectorField;
    location    "3.996/lagrangian/dsmc";
    object      U;
}
// * * * * * * * * * * * * * * * * * * * * * * * * * * * * * * * * * * * * * //


68423
(
(-320.4440506 1064.095078 -88.3667925)
(-293.4968479 -707.4884781 740.6522187)
(-20.01533228 623.6201586 1725.541721)
(4.910505168 562.5984334 1.148992495)
(-270.6543021 1141.532777 200.8879446)
(957.9794493 878.8797495 244.8027193)
(-1668.793851 1853.399351 -2793.799925)
(-94.46154523 -740.2999462 1153.703309)
(-520.457227 2229.164143 -2.087699511)
(688.8423841 180.191161 1187.696974)
(-413.8868822 509.2629028 813.0869559)
(-483.7111992 -78.46491961 -120.772743)
(313.6737299 -525.1111454 1585.725938)
(828.5053862 -65.66147908 901.3723721)
(-181.828152 -502.2682562 620.9631236)
(471.2323736 -442.1832942 542.1021923)
(-89.57378257 837.030311 -457.5485007)
(-1131.198798 453.2267107 732.6510388)
(170.1709669 -434.4711664 1445.910126)
(-91.47715357 526.9383699 -679.0288989)
(-625.2551373 -1421.814781 1078.387129)
(447.1764989 -548.1749627 1.238340266)
(862.3954596 431.8905931 167.7432449)
(-513.6928789 536.2742477 537.0252888)
(-170.9172707 -2.254289137 453.2389472)
(-298.9716156 216.5570517 829.0601047)
(-308.1646794 668.9222376 666.6871909)
(574.4107339 -209.5232286 1088.157555)
(-1130.477644 117.8366526 1143.860185)
(-344.6288659 -341.4668715 -129.7572513)
(48.47937835 -508.4314878 552.1430222)
(-1373.673453 -31.94704039 -2689.401776)
(-666.9766477 -208.413401 1575.57922)
(-799.3970086 584.0085377 -647.3388086)
(-1027.183292 288.4919756 285.5361688)
(-254.3060931 -19.4765465 502.4949205)
(473.932423 73.64038291 75.67267726)
(-195.1403599 -1.196643854 617.4233737)
(68.28709152 -219.8700296 647.8113498)
(294.5117266 -1291.924431 1066.392701)
(-741.0912708 524.5891112 192.8605478)
(264.1729487 427.2214215 875.5102818)
(356.2879629 2350.313476 -42.02639848)
(-875.4105882 -535.9655136 1353.845274)
(-1656.440128 -263.4985047 1886.847539)
(292.3510353 -869.6925322 826.0694398)
(628.1248577 173.7339155 687.4484778)
(65.18946942 -475.6421441 -36.17773795)
(26.72992799 -97.58560248 941.5976157)
(297.4010668 1168.908791 565.4465161)
(-473.0296827 -287.6016334 810.1511531)
(-248.8422763 -549.8999485 859.9281346)
(436.8637505 -411.864298 415.0596944)
(915.5111435 -37.56428608 482.368356)
(-138.3368971 37.93361727 3.815747712)
(-559.1282061 -1166.600369 143.9099109)
(-975.5753314 -377.5160438 989.4707999)
(-53.47242882 -63.05104854 385.1047891)
(890.0979597 256.5746878 280.8481687)
(-588.7096662 -38.51741608 462.6100557)
(-593.05879 222.318883 1719.530259)
(-488.6772816 693.4580927 1006.353163)
(-544.4521311 737.2182429 730.3390774)
(408.0479149 -342.7085443 407.298327)
(366.7849126 -583.878929 770.2572855)
(-948.0263555 -495.2627934 785.4609946)
(-111.4440869 1228.00064 111.8551667)
(-389.0268113 -1063.054862 549.4586919)
(656.3304436 132.6741447 849.1940198)
(-1085.514824 274.785553 150.6037377)
(-1022.566972 99.76395854 780.192434)
(260.8847479 76.98261981 -566.1470534)
(-946.0537555 -1489.636872 12.44867305)
(-595.4357718 -211.1107095 -396.1152047)
(458.5497579 968.0684333 899.9331997)
(235.9726204 251.8572507 1227.253976)
(-111.5637699 64.95714462 759.1718878)
(420.5797962 -370.9198107 932.4804447)
(73.21180047 561.7497977 -567.6654666)
(-43.96461871 618.9213068 600.2115961)
(230.2176985 -871.150038 1418.091941)
(-419.3476148 947.6956328 503.8394942)
(758.0280558 938.5191845 -46.45251987)
(171.1642992 872.1161089 559.4135703)
(486.150319 -911.392282 336.9811701)
(165.4129271 231.120725 234.6515806)
(-247.1843117 -247.403782 159.6082441)
(-186.5311056 -298.3298264 71.7249572)
(-439.6107116 -65.82997743 330.2090252)
(591.1767433 648.2325918 707.9754692)
(-61.49291795 170.9932828 -67.07882252)
(1851.439848 -221.9163863 1511.195191)
(-868.9102502 -1833.271308 -1459.502967)
(-127.8843971 613.0252202 998.0515338)
(715.8967349 -800.2070341 -586.9011355)
(1081.852774 -355.697903 760.8155608)
(-186.1459959 -918.6512829 250.6937917)
(-1077.232135 779.3959191 1037.540809)
(546.3173222 -1115.238103 -336.401939)
(87.95296421 -49.51110773 1024.644357)
(527.5332408 -222.8120686 1385.748987)
(388.9235457 17.27024257 768.3353767)
(263.9679037 454.0136492 1070.5278)
(-1066.580161 -196.1521458 917.2563837)
(-687.0528652 -68.47289741 583.2469815)
(802.4481566 1030.505454 490.2795389)
(109.2702158 45.9468974 362.964559)
(446.4774562 951.3863827 347.4449629)
(1081.266204 -1220.5917 1032.866135)
(-875.4473435 1333.564975 1582.923797)
(-142.1698444 767.9458433 1195.812831)
(316.1617402 -363.2502231 142.6227991)
(-230.5796131 -196.5817555 627.0528614)
(-636.6664649 -1209.576008 1380.769538)
(-164.924148 963.1567662 796.6740163)
(-154.2518872 -21.73157602 31.60061287)
(893.1483406 -2226.224564 60.82523348)
(1631.409051 109.8156324 85.05634218)
(395.4052691 -257.7730686 301.7272551)
(295.0098701 -1402.308381 503.3347121)
(-243.8103247 90.55704799 493.3185259)
(-594.936349 136.9951382 307.8602146)
(-250.4145538 143.7672882 707.1533963)
(376.2577587 1084.172695 -641.5713398)
(317.106941 231.6326867 46.17414018)
(-240.7409743 936.3974798 491.4701873)
(-468.445552 344.5098642 880.8885541)
(473.1617717 66.60743193 214.5718864)
(-26.21941026 493.5179188 674.4742313)
(-173.4980699 381.0728375 1161.120359)
(990.2828398 -109.0353354 1184.107891)
(-462.1919193 593.2517885 1045.265598)
(-343.0662219 623.4986927 576.6589972)
(-211.7979101 459.8162757 630.7827123)
(-449.2489436 -847.1742583 496.9493468)
(-79.56318987 495.3396258 -66.27937952)
(-46.69484633 -299.0306021 1207.722962)
(1005.301384 -703.9885376 1347.76764)
(-470.4109368 -626.6528837 877.925192)
(178.8890301 -55.52102017 423.6163554)
(-38.70783072 1065.774952 737.574923)
(-633.233385 166.482608 1009.506959)
(145.3597305 -110.75451 761.5141038)
(-55.36522948 73.5601381 1267.861033)
(-289.9535496 -161.1636928 845.5397151)
(123.9798188 -313.1772453 245.9780753)
(72.10075254 718.146184 737.4907171)
(-369.9245932 327.1413319 1060.392552)
(-749.6288294 628.079106 1463.076675)
(147.9706916 -850.0155122 1497.001758)
(-47.43017031 165.9671715 260.059173)
(-60.37525672 423.9643623 644.2655117)
(394.9614382 1138.348276 325.6036115)
(-804.9843864 617.5575537 423.1831885)
(314.4901873 -545.8304071 569.9960538)
(163.282564 392.4451214 488.9845828)
(-605.7139765 -633.4580885 -35.94252627)
(459.3875503 773.0548208 1096.487303)
(-938.6639509 -318.4555837 168.4186642)
(456.9916761 -71.46804962 1681.653083)
(367.2144266 594.9214318 692.8835263)
(-34.86559651 914.6697858 887.9635381)
(799.1769818 1227.884056 1291.250493)
(-395.879261 -924.1577207 125.4712913)
(385.7485894 349.6771502 292.5831455)
(498.6204813 -335.6752598 1849.65674)
(17.73084129 -528.3759231 492.2453382)
(-310.9517527 1131.080656 802.7837995)
(-1553.181816 407.4126812 1031.846393)
(-535.4134717 -191.4843341 1063.10506)
(-926.9389132 -251.7203369 1355.673)
(-29.41984681 -10.33790633 111.4906768)
(289.2246234 -111.6163751 242.1248895)
(922.6118348 -747.6857291 -716.3128249)
(-105.5302626 919.0513212 1024.195363)
(791.4249251 -71.6467237 409.6451071)
(1613.980258 60.71065821 -719.5724824)
(-739.0173759 1303.140639 580.9206072)
(-600.376981 992.4233127 -326.0009023)
(-500.8492552 96.40356128 109.7200193)
(-426.7327184 -1611.898448 153.9167251)
(-845.7943756 725.0679004 1592.786977)
(-92.32227746 -737.2008212 1400.024531)
(31.05757553 -370.1584348 1344.350568)
(-1351.924223 641.5513849 88.01258134)
(138.3975286 -773.2824587 574.6728431)
(-16.80660585 -267.3898901 1164.046991)
(-689.80936 547.2931789 -19.50175855)
(-1396.469472 963.4629454 -162.6213977)
(172.3517523 574.8719713 909.2441929)
(-549.1918731 -653.3101065 -784.509886)
(-146.3253155 -94.35735501 1220.383842)
(30.50579505 85.17184801 983.8061418)
(-243.9899837 -575.0257868 755.462116)
(1569.702747 662.9579056 372.6620274)
(-35.87838575 232.772882 585.0356449)
(-256.7991719 112.3433824 523.425551)
(-287.6906437 -128.7040518 1510.993688)
(-285.8280782 388.1460356 1394.615253)
(-640.3229 568.9509362 760.1471389)
(-293.9109651 -1206.072933 1312.593125)
(-131.286298 179.9006866 -11.47451552)
(135.2938445 -1008.635952 -69.57119066)
(-342.7580216 177.0217004 1484.04773)
(-424.5923666 60.4851263 1133.298914)
(723.2340156 350.9657924 1601.097974)
(-424.427528 -463.825644 596.6418006)
(24.05477352 -1090.615416 508.0761108)
(-94.74271793 17.89448624 528.254429)
(-326.8839104 318.244167 907.3830952)
(-250.7031291 -17.30108927 313.919348)
(-682.4537188 -239.009851 470.4817889)
(-546.2805971 690.1531793 167.1493338)
(130.5834526 -401.0452908 198.5165491)
(-1165.093651 529.7042025 270.0687267)
(-56.22694325 247.3355862 -1352.979136)
(1315.413844 -640.0108868 468.0499667)
(-959.4132026 230.9873952 343.1377569)
(1011.706821 -539.6767796 130.3146204)
(-278.9170321 -369.4939197 378.2687357)
(247.0490784 -997.2621658 518.954511)
(1033.818486 -310.9802195 715.9873966)
(-116.5475742 531.6854482 -293.7023322)
(1142.996761 608.9341677 1006.792932)
(33.78072918 -12.11231155 1933.206843)
(-552.621283 7.933327902 -323.9777351)
(940.9633898 861.7129809 1337.302698)
(-709.535955 299.9640505 661.2350776)
(1622.075424 -1071.11568 -1362.903665)
(355.0055303 -129.3599499 1311.147933)
(-146.1397294 224.5419061 741.6786599)
(-1467.225446 -322.7201503 804.1647977)
(318.600189 97.91314754 838.0140995)
(160.837689 51.47641608 566.1785778)
(-402.7580609 -25.49278276 156.7276621)
(-602.1352669 -673.6087424 1442.902889)
(-309.3850954 -766.9217452 527.2996762)
(-948.3373224 883.0415921 457.7593486)
(438.5239326 478.8011547 1177.282826)
(-427.3060914 -914.9058896 908.5822892)
(13.0898729 -405.0737911 -208.3359198)
(-437.3333067 -407.1063922 994.8345601)
(1267.954199 -1169.062851 1181.747525)
(408.1028476 275.9715226 1424.912982)
(528.5960379 -340.404322 135.3990803)
(-148.6645531 -262.2542572 813.9066471)
(109.5476887 287.8879927 816.8945614)
(1171.014275 -108.4576736 581.9032153)
(373.1771587 129.1645554 348.0196716)
(504.9325899 -593.4947057 905.9289567)
(-990.418959 82.10282704 1170.911342)
(251.9537361 148.1211714 641.1521268)
(1803.031456 187.9445136 1411.120872)
(-1101.721837 -1052.264055 466.3848251)
(-967.2067526 162.0351956 -947.8511489)
(66.18113193 -519.4010368 265.8853574)
(-286.733181 -470.6736178 273.196195)
(149.85847 -251.1973614 960.7020907)
(945.2731751 12.14347569 -511.9680709)
(-1055.774619 -585.235893 585.7929695)
(-1498.49994 288.0256318 1059.095888)
(-893.2093528 -1512.830477 1044.075363)
(175.2020368 -470.9453574 465.0992301)
(77.39579345 629.6455505 882.6697433)
(-703.0786163 -124.8303611 447.7332693)
(205.6401655 -172.3180468 794.4789651)
(55.24202617 -271.4013883 705.074633)
(-870.0687828 -430.2891137 87.86172823)
(-624.7276115 -18.84107625 666.7320496)
(-927.7747571 -236.2349719 -104.616837)
(752.1364535 508.9161149 821.158817)
(496.0962117 694.3156886 -1199.911951)
(-84.62264218 -813.300359 258.5679717)
(637.1211883 222.7357493 -528.1463055)
(-282.9176597 -846.0374164 889.268331)
(-786.4306319 185.2931772 1922.025558)
(-852.7465964 -1701.940337 -321.8440242)
(645.3214916 -425.7974965 1042.485094)
(867.3790832 31.68998415 1139.86118)
(22.33278838 357.7682296 -610.2231121)
(-975.2256227 533.7464361 1239.612704)
(-572.5677515 481.238264 1028.486123)
(493.880616 -784.3478266 2454.96861)
(-119.2022451 -1205.675245 1088.156302)
(-1382.92752 1605.35429 -1695.679772)
(470.2524331 454.2593083 -110.1006323)
(433.742457 -490.2902505 -150.0770473)
(-324.4646538 506.4739776 81.82852334)
(889.6036325 890.1442104 -169.2346059)
(-579.0505323 842.7607628 478.5989489)
(-459.1528622 365.3455239 160.8012118)
(649.9978826 180.6733519 -424.7812736)
(68.07517134 -364.3424557 145.0351088)
(-648.4982204 1367.075858 477.0386746)
(325.985691 -361.0716093 -792.6576798)
(600.5720268 385.653042 206.7768124)
(-110.2543715 113.4694352 154.8884411)
(994.9272754 399.0950335 562.6840846)
(-161.6024671 -320.9958026 933.1930178)
(517.0594049 -655.1292858 1961.472442)
(940.4250336 -566.3001975 84.37825303)
(-1940.660818 -69.62624637 1029.584638)
(19.95382357 867.2691825 783.8010998)
(-362.6273169 -106.7147965 236.3254173)
(166.5754494 -22.26036465 -27.44557558)
(-374.1010686 -854.0930066 603.093975)
(-49.65980614 -790.7177128 229.2956593)
(409.1714727 -47.7625974 556.7008379)
(-250.9587042 -53.67931454 1395.406294)
(187.2685883 -436.5524083 1424.551203)
(717.1836922 548.3479579 1024.692566)
(205.036802 128.8490131 506.3873657)
(612.4005435 894.2450064 692.3706244)
(110.4698869 -689.3016434 579.00492)
(-374.5399564 -874.193777 576.2328534)
(387.6743786 -1717.908942 -99.64276526)
(-1010.07318 -220.4015162 1302.965362)
(-313.0987817 313.6934662 453.8851858)
(-659.7303518 133.4179878 425.4879765)
(-214.9430903 147.5864396 1799.218205)
(832.7948163 -689.4602886 1011.037651)
(-325.7438283 356.7168879 914.6714542)
(-481.5887423 -495.6366569 1865.250135)
(153.4342337 -547.2849794 711.5688469)
(-913.298137 -762.7197185 1003.465525)
(674.4772058 207.9442347 1239.504832)
(1041.73596 106.8492044 574.0140314)
(-147.199024 464.7043127 1502.298363)
(824.9001308 -1336.477432 1237.653754)
(-303.2993034 -655.7699777 463.3467838)
(189.1527422 518.1969727 1093.588276)
(-449.3041763 -112.6353168 490.4104642)
(-751.0202318 -1176.866267 389.7812883)
(1120.73536 206.0815432 866.6176374)
(205.6006112 -746.7664783 777.5384168)
(-855.6233345 114.9295652 420.7221327)
(780.5971905 881.0933408 -39.49903023)
(-507.0311412 -1303.657696 548.0134865)
(407.0940554 -486.9546443 1714.349143)
(-79.40277995 -445.0306585 1164.802526)
(170.4702888 -524.5816878 961.6701346)
(258.6899669 -113.4273685 479.7476028)
(-209.1978623 423.0235876 1707.088386)
(-394.3137784 -537.6237981 243.2593741)
(626.8941745 222.3849353 763.1511832)
(567.3576477 -404.7500946 647.8372776)
(251.9866713 -1171.938157 1005.148959)
(570.9717517 -634.4857075 1050.263912)
(175.7647686 328.1909133 1447.093191)
(173.4371081 500.517919 1327.339327)
(-1122.040585 -239.4495859 119.0307529)
(-179.7933222 354.4724582 548.4102891)
(195.5337134 -490.8994344 734.8378045)
(-971.1478476 -511.107094 592.9623758)
(140.9082437 -1260.024659 594.274024)
(-445.9082032 502.1546998 3.565645658)
(-488.957044 -642.9142088 160.4608088)
(-8.893720658 342.4693016 1047.532233)
(775.5561619 323.4455861 732.974206)
(738.6369974 -330.0965467 -203.1294799)
(580.7354334 -490.9363602 884.1258996)
(254.9603503 269.9264595 689.2303018)
(-526.0092546 152.6441114 1543.608293)
(259.3923253 -352.3804472 32.81406353)
(-559.413679 -430.2015256 -889.5391495)
(18.82842362 -508.4695457 -193.7028467)
(-121.831638 107.0560646 -242.1555199)
(486.9429502 -95.33835765 434.9353779)
(357.1734567 461.2422209 1242.403713)
(440.9079737 458.7053599 -82.07056018)
(-699.9741421 -423.2219742 1920.642772)
(769.478614 569.3324394 -248.3064221)
(-911.8532879 155.1056117 42.44328246)
(-344.2975704 485.9830504 556.8957059)
(169.8379743 -610.2362044 455.8400964)
(-70.68283256 66.19091119 -250.1375193)
(207.0089051 572.6928873 -45.66561175)
(23.16145144 282.7153358 602.780499)
(-292.5447493 -367.5003149 260.2074811)
(1494.852722 -370.4749127 177.5694599)
(-210.3906218 -380.875313 1385.359563)
(371.4262298 -304.0631024 894.2419261)
(167.0624834 -159.3406672 632.2727169)
(-420.9406034 -633.3523729 1185.29563)
(541.714227 -1298.114182 37.99991348)
(275.4430655 86.70686478 872.2519922)
(-79.479287 -836.4868408 -209.9088877)
(1124.178745 -276.338469 144.8757649)
(-930.1635417 78.58102725 802.4940913)
(-712.9584531 -283.6893479 -311.229917)
(-223.8863291 -215.3915397 281.3556191)
(-927.3696217 662.4067589 857.9591119)
(51.19943862 99.82332982 681.9462891)
(156.2470206 -11.89891133 -3774.033061)
(916.4194334 -314.2937653 734.6186203)
(-556.6637444 -956.1149304 986.6944419)
(-196.7380168 84.92672878 105.2158297)
(86.68669385 1267.839079 902.600904)
(-17.39841004 639.5665768 617.484636)
(-816.3077731 -299.5379094 277.2346982)
(698.2621968 212.8929056 1088.942026)
(420.7090835 273.1263084 114.9415107)
(-72.96455782 -9.719720536 1072.91285)
(-148.2191793 -1554.239026 431.1239392)
(-247.0731294 -194.6431738 359.3725161)
(731.4360557 175.8509319 431.9073221)
(-275.7347527 -224.4879547 236.5584728)
(-1219.46791 795.5781391 -735.3072294)
(760.5183223 -1016.261238 464.6979408)
(-205.9095451 225.7337244 -378.4110147)
(-613.6200002 526.6859471 459.5124685)
(127.1356359 1719.094298 343.1685733)
(-66.67669677 564.2927445 1001.381448)
(605.7239531 -415.1047448 1050.88329)
(168.5766233 -637.2435244 907.0900823)
(150.7804851 70.65383569 447.2057702)
(-133.8974996 -1249.047992 744.7051872)
(-304.3543972 406.5450126 1006.174708)
(284.1720477 1082.026808 -113.5426754)
(787.8128186 -184.9867243 1043.720769)
(-122.8408016 -193.6759261 367.5501519)
(403.5493012 405.3213826 1539.548639)
(-31.8895864 53.27617711 690.8106625)
(531.5466358 -706.113299 700.5796726)
(-123.9655669 -576.8598973 10.7287521)
(638.9385423 -219.7375494 384.9320757)
(-148.3765913 -406.9650586 683.4198423)
(-768.0166294 572.6966521 524.1115562)
(-303.8700204 982.8291809 828.4649736)
(-759.8377003 292.4188612 -164.5613922)
(-324.5516027 -784.8657311 433.6490617)
(-292.52907 -765.7254251 -14.76594807)
(-119.7574504 875.386438 1551.934648)
(338.4180792 660.7909411 466.4127091)
(423.906278 571.5755628 178.8009942)
(221.7863849 54.27342514 2311.993563)
(-175.4909382 278.4339038 1360.731167)
(-841.8398751 -953.3235466 -3441.797505)
(231.2882158 -242.970218 360.4050404)
(-333.3475967 -380.3894341 -544.3179248)
(714.3441875 -505.4387313 1009.405606)
(-497.9335602 -37.95383899 111.2426925)
(338.7827847 156.7046528 213.6765702)
(435.5968645 -187.6140864 390.3636086)
(-205.2566155 387.0705609 1719.894158)
(64.11572486 769.4638684 -286.4091874)
(-995.8591208 738.2447904 336.2487263)
(-185.3984625 44.50194766 840.5229741)
(-700.0697118 699.1427543 1134.689708)
(-223.4283976 242.1456358 747.8291916)
(-451.4014056 -1056.904429 936.1065266)
(-1664.874673 -871.3979006 400.4654855)
(-206.9881142 -451.2165915 896.0678512)
(-728.799899 -111.9530831 -366.3900029)
(-41.98890396 401.6751958 1660.832465)
(673.1406767 773.0834898 185.1344185)
(-186.2153583 -133.618523 1041.963567)
(-50.34654337 17.32617459 310.1724034)
(1199.518481 -420.8259334 883.5266644)
(723.9893646 70.26057057 638.3560242)
(846.4902316 134.6634057 756.5285066)
(-696.6796403 -122.6938153 68.89273489)
(-1.463114765 139.9040368 679.0488485)
(-75.50948103 960.8612155 1376.57977)
(542.8643841 467.145183 916.2505318)
(-83.32910652 804.8865159 -481.4841334)
(-727.9017539 554.2170492 -5.019136303)
(209.7354875 404.5791915 168.0272999)
(546.7828438 293.828588 1560.154921)
(-509.4241971 471.9189081 585.3233512)
(83.82018407 -141.0438317 718.2788805)
(346.6490358 -621.0702903 384.2072441)
(-123.7410999 232.4592847 1284.293296)
(368.9462921 -117.782984 373.1119996)
(1401.477028 257.5945661 697.0409499)
(739.8065977 692.5683788 475.2219869)
(-97.27839235 183.896682 212.5698213)
(-62.20719652 253.4206204 545.3169069)
(177.5328114 -602.900891 1790.735791)
(445.3134686 48.64755149 337.6459846)
(-1037.465605 842.5193832 -190.7162533)
(1045.567631 142.9078052 -137.4231009)
(-289.4466505 -192.2773761 370.4644204)
(284.2557078 -100.5698061 -3.387658509)
(172.2625024 -20.38214864 1293.583491)
(-183.9028774 -144.3424244 886.5673802)
(-329.1353908 -1147.627176 -95.08445388)
(7.852608844 -540.0543157 1139.748007)
(376.1139606 -94.79037245 154.8186723)
(271.8141361 167.5922504 1357.200032)
(531.0580023 -152.0514243 421.5045614)
(-355.9842575 -1498.854832 1034.900982)
(-671.5593474 194.2606723 -45.34402481)
(1207.213246 66.17120984 1825.27491)
(689.6110732 1332.206473 -680.3940659)
(648.8157709 66.74522319 -133.3180255)
(-128.7477385 -1047.420791 1079.479789)
(-1101.212248 604.6393337 920.3068588)
(551.4280394 -515.3034462 1821.754593)
(262.9828739 59.30062359 1278.9819)
(-1847.255854 141.4616989 810.8145444)
(-372.6706832 -805.1750121 -424.0857347)
(-158.9766099 -440.0765834 1392.997473)
(-343.498425 24.41158381 -769.4812694)
(-164.3941419 567.7943453 793.0725658)
(762.3276547 147.5687012 1035.678919)
(16.63907801 164.9668664 -4.306799169)
(225.706907 -102.5356158 589.8163723)
(-608.8634923 1084.205252 818.9072671)
(438.0271742 287.1656967 334.7263466)
(-745.8982084 -24.96827616 816.5980537)
(-511.0997732 1427.788317 -26.47352435)
(-58.955775 228.6852186 -845.719066)
(395.1664267 -482.9644608 338.6009015)
(513.5570904 -206.4806317 656.1910195)
(-206.1116052 -27.46535985 917.4937113)
(371.9281269 528.6097594 -502.5602884)
(-677.9477323 346.4644767 909.0970788)
(-358.3188149 -438.5498907 757.4388659)
(139.9399655 127.7775454 751.1907931)
(133.7423302 299.8840751 327.4916727)
(358.9892543 337.4508019 672.4667507)
(1062.000208 446.7291391 -1.98710978)
(1594.787956 565.5970112 -2289.766962)
(330.8326391 -399.7507695 81.15324583)
(154.2207953 522.7805616 942.4735487)
(918.6881318 -205.176703 672.1941187)
(-657.233576 -285.0577817 397.1213822)
(-313.709134 963.3932681 1233.034308)
(682.8805533 -414.2077715 610.5860081)
(-349.5693964 -274.4856121 -22.68963277)
(408.4022656 754.4275766 674.5581813)
(-600.6195577 -26.0204966 1090.119746)
(173.8925512 -60.12372838 315.4453444)
(-177.163505 -769.1160718 490.0535964)
(225.0636959 -396.9649244 12.0650833)
(372.3085068 794.3679862 810.8657018)
(-1532.724753 984.1859205 483.1154817)
(-812.3224651 138.7516413 810.4492631)
(454.6031474 -322.3970757 664.0431596)
(-129.6673848 253.3175356 186.1358584)
(983.6038125 -48.98567533 466.4880251)
(392.068137 -160.9362195 464.1677091)
(17.3958077 146.7547947 691.3787486)
(81.54088259 418.3242972 1063.50793)
(457.807694 -640.7516533 842.8165551)
(210.9364092 376.1945804 751.7585117)
(-274.100954 232.9074837 1053.590545)
(-281.9485649 -401.351049 1019.180844)
(135.7814366 -281.8408843 1687.896943)
(251.4079884 73.81190374 500.1447877)
(-1007.563556 2129.301788 391.3465464)
(-412.8982392 -618.4769329 514.4150119)
(-274.3304213 -144.4806324 -384.0119934)
(-454.0973247 -739.2723536 476.9317193)
(-340.4461032 188.970013 1200.560057)
(502.0726566 -351.8132525 1087.584367)
(-67.00780738 482.393984 634.5255139)
(-437.5275647 -345.1178529 829.8663163)
(-550.3345533 1020.641739 477.5775743)
(1424.88182 2055.606269 784.8271587)
(24.13613973 69.16264041 304.6854305)
(-122.4503001 736.1527568 168.9205035)
(-154.2569745 -483.9552002 738.2267247)
(-2265.503738 272.3796481 827.0773567)
(1215.133854 970.067874 -348.5829229)
(636.6705499 -320.6569123 37.14802082)
(-155.0507251 276.539666 366.4810612)
(-144.4747189 -578.9163066 1015.030348)
(-831.5141996 -389.3801831 466.8891539)
(-691.4723804 788.1623983 -103.6416294)
(-270.7105479 -164.0641586 135.8672682)
(228.4646578 1419.126319 389.9010579)
(-12.96427819 -538.0888637 1107.243195)
(-82.30544588 -559.7972209 -167.2921179)
(164.8036344 -345.5008864 731.2231794)
(-827.1050062 -401.1399717 1169.153553)
(839.7261305 306.4018449 20.58267916)
(495.5171934 -316.710468 1736.255709)
(-312.0862365 673.0279002 -8.464371369)
(638.3317435 -245.8025457 576.2809099)
(145.8150291 366.8983245 318.6654406)
(-87.14724781 -942.8078632 252.1385176)
(1022.335555 -412.7034924 1530.344959)
(-283.2256658 -697.1497349 1031.783221)
(-140.9426537 -1389.139223 827.985825)
(707.9814565 83.99328457 145.5728937)
(301.8115164 316.3255528 -787.4604961)
(-622.5963732 1156.893681 1101.877915)
(-389.3036906 -293.4388918 472.6620183)
(-855.8427812 -567.0711296 625.2836264)
(-173.764221 -560.2824065 698.8476246)
(-205.5881405 -80.37553538 349.4804064)
(845.6528785 191.2171475 -151.2836676)
(-457.11197 1066.909137 448.0805312)
(581.1184491 138.0710557 809.073891)
(229.7461497 -828.2520247 198.8350705)
(936.6378726 646.8824789 634.3744136)
(221.4934652 912.5386918 -171.51429)
(-197.7451872 270.4874795 916.1911378)
(443.7084242 592.1710305 1453.771247)
(123.7628396 262.2837397 1140.189827)
(-322.8417632 697.4008625 110.4075078)
(2424.537906 246.99373 -213.9826813)
(969.4107113 581.965142 208.5139708)
(164.1609971 -360.6564299 2458.3638)
(651.4218481 336.428065 794.818184)
(968.7999892 -571.0713194 1511.152286)
(-357.3765762 -84.53876791 -799.586429)
(225.7742683 -291.1897575 289.2052803)
(330.3905736 747.0039382 673.8774012)
(96.50336996 -458.4383683 -145.9715299)
(629.583838 -500.9710962 1028.126803)
(-40.51969517 1660.324837 -929.0223117)
(-7.610913599 299.2164511 76.06034308)
(407.4604147 951.3062945 1333.391977)
(-175.9900818 -581.069302 -381.1790933)
(1220.192676 -1425.255392 1194.33868)
(73.67087985 -404.2696572 488.5351079)
(4.804971949 -918.6569053 -418.2187755)
(199.7930223 362.5465144 1114.567356)
(-734.2393987 -516.6986228 417.3604014)
(-271.0509548 -753.0600303 130.4073186)
(-337.4997152 486.6888647 467.9326548)
(-325.4720787 -913.2778614 1045.281872)
(1478.812208 340.5927073 373.7551379)
(824.6436414 -6.991936509 1279.664987)
(-310.4052978 -435.5993832 394.9038521)
(-444.0107781 1650.666198 562.1680373)
(680.3535678 -48.42053248 389.8969831)
(-600.7351715 181.7433867 -23.55378986)
(176.5482018 -1217.652309 249.0773356)
(-406.7722592 -410.8337789 -500.6264709)
(-155.4065412 -502.185953 -614.2747412)
(338.0293153 750.9387187 1041.920391)
(1197.683712 788.3988522 899.1870402)
(-820.7105098 615.6960532 1251.503641)
(739.5601114 533.3450539 607.3948165)
(-523.8722589 -515.1868965 646.2721138)
(90.50743322 -822.9767486 940.2912508)
(1322.327386 1066.42856 1429.806115)
(339.9207487 1625.433426 295.7223352)
(-855.5270803 -1307.287826 995.1269258)
(842.321071 -681.3958628 552.6795736)
(-127.4953854 -610.8811933 1075.605397)
(416.5873483 -108.1967662 142.1366614)
(621.6722931 1306.052318 1180.581717)
(596.934412 -76.2693096 375.3877521)
(8.057342431 -578.1338373 -64.79913419)
(195.8098168 -850.2896144 196.5450283)
(26.43795072 -687.1206326 1096.21461)
(184.2130391 -72.3416961 1067.140362)
(690.9544331 124.1749867 1518.943602)
(-449.677456 2292.454818 -899.3695374)
(-1069.590939 -271.5514118 432.844871)
(255.9016724 1250.72181 973.2489926)
(536.1137577 -628.7691676 413.5736269)
(373.4788893 306.336885 649.4737819)
(-349.4403608 376.7493143 610.0928473)
(102.3978374 -900.605905 455.7631079)
(-832.9193214 -788.2427367 991.413564)
(404.2907044 638.2417286 511.5629384)
(-305.2802221 -662.9858011 -376.5844892)
(784.4505623 407.4892249 2116.984588)
(-210.4771824 500.1539532 360.8639303)
(-37.30899215 -108.1081943 1347.106194)
(426.0111546 387.5398604 1169.479979)
(-193.2149254 386.3774719 840.441645)
(289.1770035 -41.33602712 807.6491862)
(593.9519955 543.9635566 1413.059069)
(901.2800042 -288.7748786 -98.65032989)
(937.1908702 -208.8901793 -49.76762529)
(1054.401633 -453.5267421 826.92895)
(-340.5247303 -138.768452 930.9480365)
(-206.5384512 -383.9723378 256.7735667)
(-779.2044729 -734.5602157 652.8775173)
(492.9181802 -114.3962785 19.11930569)
(289.1004718 76.86960132 529.1501008)
(725.9496931 513.8965296 -62.24981287)
(-758.5914936 442.9465924 1596.604946)
(-596.4561194 197.1990329 168.925143)
(95.45256898 -580.2324116 786.6357981)
(-605.6915563 908.0970964 1827.355071)
(-396.3376069 -0.8614324806 691.149659)
(1036.22493 -539.3318404 508.3009983)
(-1289.326877 885.6274387 -2657.818374)
(-1161.089042 -1059.619017 843.6062066)
(-1357.907471 454.3544804 1853.829666)
(683.8635179 1238.501954 -2152.522039)
(-253.6919196 323.6832371 970.3204411)
(-367.1087947 57.78515266 949.5997994)
(-126.7678093 -304.8627471 959.9283045)
(225.9696067 213.8396771 260.8316271)
(718.7371975 378.5020743 882.3542548)
(135.846006 923.2120743 1174.952781)
(34.75744136 228.1575581 1556.853964)
(469.3101637 1323.279249 475.3134623)
(-312.473399 -237.7319278 321.2815623)
(-10.73999237 -219.3807673 632.8848585)
(-1117.98991 -1039.531423 87.22758054)
(-41.38067415 -348.3343955 943.2980993)
(676.460382 -728.6793893 1540.673886)
(694.9649052 -475.6628904 1650.116496)
(-3.84050244 923.0061031 395.6275311)
(-261.9255988 219.7155686 1146.21331)
(417.0948032 220.6725621 -259.7883638)
(-134.1255708 142.7073161 754.8168532)
(331.5448357 579.2890304 -596.6034353)
(-123.6294213 -187.0908025 486.9793462)
(279.8261353 226.8010621 1322.195014)
(401.8525482 119.1688809 819.7611946)
(619.3953862 -298.7814003 1043.172524)
(489.4189825 193.3020138 278.2629651)
(109.1273762 -645.5159265 1043.659563)
(397.4962744 -993.0030966 -300.2038931)
(213.8523605 777.4339456 1633.53511)
(241.1697852 15.96993677 262.1897008)
(795.1041481 702.6199714 1450.974816)
(-39.2407909 -118.1959507 288.079187)
(-527.8845803 267.7265107 959.5885062)
(824.4338054 -49.2238372 295.689075)
(151.1809851 -134.0188436 1539.164898)
(-432.8740963 259.6742455 -17.04355042)
(176.0543862 -351.5929107 805.5355663)
(536.0060876 271.370721 195.8966571)
(237.3516151 -800.5431798 33.25710573)
(-396.1263789 953.3075905 -688.7207842)
(-81.88515747 335.0012947 95.77331132)
(624.5809441 -242.2932776 612.6633241)
(-667.6875231 540.354535 1403.365343)
(1188.379977 465.7838052 784.9082542)
(795.9976896 422.9141489 -296.4202155)
(-351.4077962 -407.9496281 1137.23735)
(966.2243404 558.6201471 865.7076023)
(-905.7889439 366.0261255 -308.0752287)
(241.3116094 202.5237367 1017.607357)
(-341.4901909 198.2297346 771.2205126)
(620.5110522 -1053.982784 869.101239)
(266.3908289 338.0953958 292.5440071)
(-755.6565145 -448.5872489 169.0215914)
(100.9637131 250.3016334 752.0028889)
(-641.5771735 -24.99384863 -1188.377584)
(111.3854739 76.88772779 660.7562466)
(1620.475805 856.373489 153.8673936)
(120.3618504 -445.2286003 212.80182)
(-293.1138911 -252.9370206 347.8759238)
(1062.93614 450.5354142 -334.2748645)
(-1704.978748 -1173.244566 -222.2704837)
(689.3569738 155.1111972 -17.50466895)
(479.8554444 79.86659503 1332.57455)
(-827.6592999 -169.7168036 1398.573865)