/*--------------------------------*- C++ -*----------------------------------*\
| =========                 |                                                 |
| \\      /  F ield         | OpenFOAM: The Open Source CFD Toolbox           |
|  \\    /   O peration     | Version:  v1706                                 |
|   \\  /    A nd           | Web:      www.OpenFOAM.com                      |
|    \\/     M anipulation  |                                                 |
\*---------------------------------------------------------------------------*/
FoamFile
{
    version     2.0;
    format      ascii;
    class       volScalarField;
    location    "1";
    object      dsmcSigmaTcRMax;
}
// * * * * * * * * * * * * * * * * * * * * * * * * * * * * * * * * * * * * * //

dimensions      [0 3 -1 0 0 0 0];


internalField   uniform 1.96386524178092e-16;

boundaryField
{
    world
    {
        type            zeroGradient;
    }
    RocketBody
    {
        type            zeroGradient;
    }
    RocketFaceDown
    {
        type            zeroGradient;
    }
    SheildBody
    {
        type            zeroGradient;
    }
    ShieldFaceOut
    {
        type            zeroGradient;
    }
    Surface
    {
        type            zeroGradient;
    }
}


// ************************************************************************* //
