/*--------------------------------*- C++ -*----------------------------------*\
| =========                 |                                                 |
| \\      /  F ield         | OpenFOAM: The Open Source CFD Toolbox           |
|  \\    /   O peration     | Version:  v1706                                 |
|   \\  /    A nd           | Web:      www.OpenFOAM.com                      |
|    \\/     M anipulation  |                                                 |
\*---------------------------------------------------------------------------*/
FoamFile
{
    version     2.0;
    format      ascii;
    class       volScalarField;
    location    "3.996";
    object      dsmcNMean_N2;
}
// * * * * * * * * * * * * * * * * * * * * * * * * * * * * * * * * * * * * * //

dimensions      [0 0 0 0 0 0 0];


internalField   nonuniform List<scalar> 
50792
(
0.0009929906542
0.001051401869
0.002172897196
0.002320093458
0.00288317757
0.004308411215
0.005313084112
0.004235981308
0.00516588785
0.00501635514
0.005677570093
0.005151869159
0.006754672897
0.005957943925
0.006913551402
0.008042056075
0.006640186916
0.006778037383
0.007586448598
0.007214953271
0.009179906542
0.009261682243
0.00803271028
0.008887850467
0.01014719626
0.008014018692
0.007941588785
0.01092757009
0.009261682243
0.009476635514
0.01088551402
0.009913551402
0.009789719626
0.01021728972
0.00911682243
0.00953271028
0.01043925234
0.008976635514
0.009691588785
0.01030607477
0.01098364486
0.01095794393
0.0007663551402
0.0006845794393
0.001051401869
0.001577102804
0.002775700935
0.002922897196
0.002605140187
0.002934579439
0.003432242991
0.003712616822
0.004049065421
0.004238317757
0.00471728972
0.006098130841
0.007109813084
0.00638317757
0.006102803738
0.006257009346
0.006735981308
0.006413551402
0.006273364486
0.006163551402
0.007119158879
0.008142523364
0.009315420561
0.008464953271
0.007978971963
0.008789719626
0.00903271028
0.00858411215
0.008962616822
0.00773364486
0.008065420561
0.007542056075
0.007198598131
0.009112149533
0.007990654206
0.009607476636
0.00883411215
0.009130841121
0.007028037383
0.007507009346
0.0008341121495
0.0008224299065
0.001453271028
0.002140186916
0.002598130841
0.003439252336
0.003876168224
0.003929906542
0.004579439252
0.005095794393
0.006039719626
0.004939252336
0.006651869159
0.005911214953
0.00614953271
0.005738317757
0.006637850467
0.007355140187
0.008385514019
0.008364485981
0.007707943925
0.006887850467
0.008684579439
0.008460280374
0.007593457944
0.008626168224
0.00789953271
0.006189252336
0.008495327103
0.009182242991
0.008310747664
0.007598130841
0.00813317757
0.009485981308
0.00914953271
0.008997663551
0.009528037383
0.009920560748
0.01015186916
0.009224299065
0.007960280374
0.008462616822
0.0007056074766
0.001231308411
0.001385514019
0.001939252336
0.00258411215
0.002280373832
0.003053738318
0.003147196262
0.003448598131
0.004894859813
0.006095794393
0.005752336449
0.0075
0.005521028037
0.006413551402
0.008168224299
0.006859813084
0.00751635514
0.006242990654
0.009142523364
0.009275700935
0.008838785047
0.007663551402
0.009939252336
0.01120560748
0.009144859813
0.007974299065
0.007385514019
0.009348130841
0.01021962617
0.00758411215
0.008168224299
0.007336448598
0.007918224299
0.00883411215
0.00813317757
0.008593457944
0.009731308411
0.01110046729
0.00925
0.009306074766
0.009663551402
0.0007242990654
0.001658878505
0.0008785046729
0.001705607477
0.002114485981
0.00266588785
0.003950934579
0.003488317757
0.003757009346
0.004778037383
0.004453271028
0.004296728972
0.005315420561
0.005207943925
0.006869158879
0.006981308411
0.007193925234
0.007803738318
0.008754672897
0.008768691589
0.008792056075
0.01172663551
0.01060280374
0.009049065421
0.01119158879
0.009294392523
0.008591121495
0.008210280374
0.008154205607
0.009086448598
0.009275700935
0.006535046729
0.007747663551
0.007268691589
0.007553738318
0.009261682243
0.008626168224
0.009462616822
0.01018925234
0.008502336449
0.008588785047
0.007792056075
0.002317757009
0.0007406542056
0.001960280374
0.001726635514
0.001974299065
0.002387850467
0.002530373832
0.002890186916
0.003700934579
0.003684579439
0.004156542056
0.006002336449
0.005268691589
0.005992990654
0.005549065421
0.005978971963
0.006471962617
0.006906542056
0.008712616822
0.008827102804
0.009357476636
0.009981308411
0.01186448598
0.01079672897
0.008408878505
0.008845794393
0.009074766355
0.01000233645
0.01020794393
0.007478971963
0.009904205607
0.007137850467
0.008329439252
0.007962616822
0.007873831776
0.00914953271
0.007796728972
0.008574766355
0.007918224299
0.008518691589
0.007988317757
0.007539719626
0.001112149533
0.0007523364486
0.001418224299
0.001686915888
0.002014018692
0.002425233645
0.00414953271
0.004528037383
0.003927570093
0.003962616822
0.004553738318
0.004985981308
0.005721962617
0.005338785047
0.004985981308
0.005268691589
0.007018691589
0.006404205607
0.006876168224
0.008511682243
0.008200934579
0.01107009346
0.01070093458
0.009079439252
0.01073831776
0.01062383178
0.00808411215
0.008911214953
0.007474299065
0.00863317757
0.01047663551
0.01033411215
0.00883411215
0.008761682243
0.009574766355
0.008119158879
0.007955607477
0.009943925234
0.009488317757
0.01064252336
0.009425233645
0.007406542056
0.001443925234
0.0007780373832
0.000988317757
0.001373831776
0.00185046729
0.002172897196
0.003378504673
0.003320093458
0.003672897196
0.004502336449
0.004373831776
0.004535046729
0.005046728972
0.005934579439
0.005941588785
0.007450934579
0.009051401869
0.008191588785
0.007257009346
0.007817757009
0.006296728972
0.007658878505
0.008301401869
0.007488317757
0.009051401869
0.00878271028
0.009757009346
0.008810747664
0.009422897196
0.009518691589
0.01018691589
0.009140186916
0.009140186916
0.008593457944
0.00921728972
0.008539719626
0.01058878505
0.01142990654
0.01012149533
0.008974299065
0.008698598131
0.008422897196
0.001785046729
0.00114953271
0.001932242991
0.002397196262
0.003306074766
0.003668224299
0.003509345794
0.004212616822
0.004831775701
0.004670560748
0.005004672897
0.005546728972
0.005186915888
0.006327102804
0.005974299065
0.007086448598
0.007147196262
0.006299065421
0.007098130841
0.007682242991
0.006948598131
0.008364485981
0.006254672897
0.006228971963
0.008453271028
0.009922897196
0.007845794393
0.008528037383
0.007630841121
0.008602803738
0.007077102804
0.00836682243
0.009387850467
0.008306074766
0.009670560748
0.007308411215
0.01113317757
0.01120794393
0.009628504673
0.01126869159
0.00888317757
0.007775700935
0.002254672897
0.0006752336449
0.001327102804
0.001511682243
0.00346728972
0.00339953271
0.003123831776
0.004198598131
0.005065420561
0.005224299065
0.005301401869
0.006605140187
0.005754672897
0.006107476636
0.006025700935
0.007214953271
0.006252336449
0.007574766355
0.00935046729
0.008964953271
0.01028271028
0.007792056075
0.009565420561
0.007656542056
0.008623831776
0.007778037383
0.009046728972
0.009357476636
0.009436915888
0.00953271028
0.00913317757
0.00958411215
0.007890186916
0.008820093458
0.008264018692
0.009376168224
0.01081775701
0.01076168224
0.009060747664
0.01074065421
0.009742990654
0.00846728972
0.002184579439
0.0008528037383
0.001406542056
0.002287383178
0.003808411215
0.004301401869
0.003408878505
0.0045
0.005292056075
0.005464953271
0.005806074766
0.005352803738
0.00523364486
0.005112149533
0.005997663551
0.006721962617
0.006523364486
0.006859813084
0.006700934579
0.007827102804
0.007628504673
0.009686915888
0.008885514019
0.008182242991
0.008051401869
0.008060747664
0.008238317757
0.009228971963
0.008401869159
0.008957943925
0.009235981308
0.008063084112
0.00989953271
0.009158878505
0.009446261682
0.008771028037
0.01080373832
0.01036915888
0.01064252336
0.009778037383
0.0100911215
0.008890186916
0.001682242991
0.0009672897196
0.00148364486
0.002065420561
0.002560747664
0.004147196262
0.002978971963
0.00460046729
0.005668224299
0.005070093458
0.005471962617
0.007182242991
0.006488317757
0.005712616822
0.00589953271
0.006406542056
0.007046728972
0.007128504673
0.009182242991
0.008936915888
0.007953271028
0.008712616822
0.008179906542
0.007385514019
0.007210280374
0.007460280374
0.008427570093
0.007345794393
0.009588785047
0.007696261682
0.009478971963
0.008450934579
0.008773364486
0.006656542056
0.006462616822
0.007030373832
0.00701635514
0.008189252336
0.008329439252
0.008299065421
0.007908878505
0.006637850467
0.001796728972
0.00075
0.001172897196
0.001705607477
0.002542056075
0.003619158879
0.00333411215
0.003974299065
0.004887850467
0.00488317757
0.004380841121
0.00723364486
0.006556074766
0.006376168224
0.00511682243
0.005481308411
0.006724299065
0.0065
0.007443925234
0.008859813084
0.007359813084
0.006565420561
0.008579439252
0.007992990654
0.008511682243
0.007714953271
0.00775
0.009577102804
0.01120560748
0.01003037383
0.00816588785
0.008299065421
0.009147196262
0.009154205607
0.008876168224
0.009254672897
0.009196261682
0.007672897196
0.007941588785
0.00788317757
0.00823364486
0.006390186916
0.001668224299
0.001186915888
0.001619158879
0.001962616822
0.002904205607
0.003315420561
0.002728971963
0.004567757009
0.00383411215
0.004920560748
0.004443925234
0.005481308411
0.004301401869
0.006542056075
0.006306074766
0.005537383178
0.006067757009
0.00676635514
0.006123831776
0.005969626168
0.006726635514
0.007806074766
0.00764953271
0.01024065421
0.01043691589
0.009348130841
0.01006775701
0.01096728972
0.01004439252
0.007661214953
0.008137850467
0.009074766355
0.00833411215
0.008259345794
0.007808411215
0.01064252336
0.009434579439
0.007535046729
0.008285046729
0.008151869159
0.00888317757
0.007598130841
0.002691588785
0.0006448598131
0.001364485981
0.002007009346
0.002259345794
0.002796728972
0.003796728972
0.003630841121
0.004651869159
0.005397196262
0.004948598131
0.005226635514
0.004813084112
0.00538317757
0.006558411215
0.006460280374
0.005672897196
0.00711682243
0.007976635514
0.007700934579
0.006495327103
0.007268691589
0.007908878505
0.008682242991
0.008362149533
0.00873364486
0.006876168224
0.008063084112
0.009128504673
0.01130841121
0.01044626168
0.009207943925
0.007829439252
0.007799065421
0.00938317757
0.008901869159
0.009434579439
0.009771028037
0.009121495327
0.006838785047
0.008210280374
0.006693925234
0.002119158879
0.0005794392523
0.0009439252336
0.001511682243
0.00271728972
0.002759345794
0.00289953271
0.004121495327
0.004301401869
0.005058411215
0.005144859813
0.004644859813
0.005196261682
0.006175233645
0.005668224299
0.006474299065
0.009009345794
0.007754672897
0.007539719626
0.008778037383
0.008439252336
0.008593457944
0.00698364486
0.007565420561
0.008210280374
0.008476635514
0.01063084112
0.01045794393
0.00864953271
0.009672897196
0.008693925234
0.007752336449
0.008556074766
0.006990654206
0.01007476636
0.007240654206
0.008841121495
0.007602803738
0.00710046729
0.00789953271
0.007941588785
0.008098130841
0.001443925234
0.0007920560748
0.001135514019
0.001485981308
0.002299065421
0.002315420561
0.003021028037
0.004271028037
0.003950934579
0.004696261682
0.003507009346
0.004572429907
0.006397196262
0.004971962617
0.005441588785
0.005668224299
0.005088785047
0.006668224299
0.009205607477
0.007478971963
0.006602803738
0.006626168224
0.007186915888
0.007978971963
0.008044392523
0.007035046729
0.009420560748
0.008070093458
0.009158878505
0.008845794393
0.008651869159
0.008528037383
0.009492990654
0.01039252336
0.01223598131
0.01100934579
0.01171495327
0.01044158879
0.009936915888
0.01088084112
0.008876168224
0.007235981308
0.00283411215
0.0009065420561
0.001037383178
0.001198598131
0.001841121495
0.001920560748
0.003074766355
0.003240654206
0.00453271028
0.004901869159
0.004586448598
0.004726635514
0.004862149533
0.00521728972
0.006079439252
0.006719626168
0.006429906542
0.006852803738
0.009404205607
0.009714953271
0.007817757009
0.007703271028
0.007151869159
0.009156542056
0.006920560748
0.008502336449
0.006904205607
0.006257009346
0.006198598131
0.006740654206
0.008028037383
0.008018691589
0.008
0.008481308411
0.009476635514
0.01066121495
0.01114018692
0.009331775701
0.01020327103
0.008759345794
0.008679906542
0.00714953271
0.001859813084
0.0005537383178
0.001401869159
0.001530373832
0.002172897196
0.002969626168
0.003831775701
0.003492990654
0.00441588785
0.004939252336
0.005901869159
0.005161214953
0.005308411215
0.006191588785
0.007836448598
0.007112149533
0.006761682243
0.006939252336
0.00751635514
0.008289719626
0.007614485981
0.007873831776
0.00763317757
0.0101588785
0.008411214953
0.008904205607
0.01096728972
0.009845794393
0.009651869159
0.01019392523
0.009296728972
0.01048130841
0.008689252336
0.008813084112
0.009530373832
0.009654205607
0.01075
0.009404205607
0.00833411215
0.008102803738
0.008525700935
0.007373831776
0.003268691589
0.0007102803738
0.001186915888
0.00185046729
0.002873831776
0.002705607477
0.003455607477
0.003502336449
0.003815420561
0.005542056075
0.006644859813
0.005369158879
0.006042056075
0.006663551402
0.006441588785
0.007731308411
0.007747663551
0.008469626168
0.005948598131
0.008329439252
0.008518691589
0.008768691589
0.008803738318
0.01087149533
0.009948598131
0.01020327103
0.01094859813
0.009628504673
0.008170560748
0.008570093458
0.007981308411
0.007523364486
0.007871495327
0.009511682243
0.007932242991
0.006913551402
0.008313084112
0.008156542056
0.00886682243
0.008200934579
0.007911214953
0.007567757009
0.004495327103
0.0008271028037
0.001623831776
0.002324766355
0.002843457944
0.003193925234
0.00389953271
0.004679906542
0.005570093458
0.005901869159
0.005719626168
0.00763317757
0.006390186916
0.01088084112
0.00746728972
0.007626168224
0.01123831776
0.00948364486
0.008721962617
0.009259345794
0.0115817757
0.009411214953
0.008324766355
0.009102803738
0.008890186916
0.008901869159
0.01013785047
0.009544392523
0.009567757009
0.007808411215
0.008135514019
0.008067757009
0.008726635514
0.007974299065
0.007663551402
0.008450934579
0.007754672897
0.008663551402
0.007352803738
0.00626635514
0.006894859813
0.006588785047
0.003060747664
0.0006331775701
0.001175233645
0.001887850467
0.002357476636
0.00236682243
0.003257009346
0.003647196262
0.003686915888
0.004257009346
0.005004672897
0.006184579439
0.007086448598
0.007528037383
0.009978971963
0.008553738318
0.00836682243
0.009348130841
0.008070093458
0.008481308411
0.009696261682
0.009478971963
0.01094392523
0.009817757009
0.008852803738
0.008981308411
0.00963317757
0.008343457944
0.007443925234
0.00896728972
0.00933411215
0.00823364486
0.008296728972
0.00916588785
0.007271028037
0.009095794393
0.008049065421
0.009144859813
0.006586448598
0.007950934579
0.007135514019
0.006074766355
0.001074766355
0.0007242990654
0.001394859813
0.001392523364
0.001974299065
0.002476635514
0.002591121495
0.003240654206
0.00351635514
0.004521028037
0.004193925234
0.004257009346
0.004679906542
0.006525700935
0.005207943925
0.007476635514
0.007497663551
0.008093457944
0.007817757009
0.007044392523
0.007707943925
0.007845794393
0.009158878505
0.007953271028
0.01133878505
0.008268691589
0.009200934579
0.009060747664
0.008502336449
0.009745327103
0.01008878505
0.01187616822
0.01077336449
0.009128504673
0.01020327103
0.009390186916
0.0109088785
0.01112616822
0.00938317757
0.009093457944
0.007901869159
0.00733411215
0.002289719626
0.001628504673
0.001102803738
0.001593457944
0.002740654206
0.002556074766
0.00314953271
0.003413551402
0.003841121495
0.005168224299
0.00621728972
0.005460280374
0.006588785047
0.006257009346
0.006296728972
0.006656542056
0.007969626168
0.008268691589
0.008507009346
0.006401869159
0.006719626168
0.007464953271
0.008301401869
0.007686915888
0.01025700935
0.008380841121
0.008806074766
0.007242990654
0.007299065421
0.006710280374
0.007726635514
0.008670560748
0.00928271028
0.008303738318
0.008317757009
0.008380841121
0.009011682243
0.01069859813
0.008985981308
0.009420560748
0.008280373832
0.007411214953
0.002721962617
0.0005210280374
0.0009392523364
0.001628504673
0.001827102804
0.00225
0.00316588785
0.003203271028
0.00396728972
0.00538317757
0.005920560748
0.006376168224
0.00676635514
0.006175233645
0.007703271028
0.008679906542
0.007324766355
0.008420560748
0.007200934579
0.009221962617
0.006792056075
0.007210280374
0.007537383178
0.008341121495
0.008572429907
0.009378504673
0.008151869159
0.00814953271
0.007864485981
0.008221962617
0.007955607477
0.009612149533
0.009978971963
0.009514018692
0.008876168224
0.008747663551
0.008086448598
0.00903271028
0.007385514019
0.007056074766
0.007974299065
0.007056074766
0.002060747664
0.0004976635514
0.001317757009
0.001593457944
0.002268691589
0.003182242991
0.003609813084
0.003827102804
0.003689252336
0.004810747664
0.004303738318
0.004852803738
0.006439252336
0.00721728972
0.007946261682
0.008142523364
0.006738317757
0.007507009346
0.006418224299
0.007362149533
0.006182242991
0.006056074766
0.008123831776
0.008292056075
0.008210280374
0.00860046729
0.01033411215
0.0106728972
0.01021261682
0.01004205607
0.009735981308
0.008331775701
0.01048364486
0.009593457944
0.009885514019
0.008946261682
0.007275700935
0.00828271028
0.009369158879
0.008780373832
0.007661214953
0.01000233645
0.0006705607477
0.0006425233645
0.002177570093
0.002745327103
0.002088785047
0.002848130841
0.003011682243
0.003509345794
0.00385046729
0.004123831776
0.004581775701
0.005773364486
0.005605140187
0.007088785047
0.006997663551
0.007135514019
0.009418224299
0.009390186916
0.00853271028
0.009785046729
0.009252336449
0.007306074766
0.007911214953
0.008271028037
0.009885514019
0.008098130841
0.009700934579
0.009824766355
0.01123130841
0.008595794393
0.01007943925
0.009792056075
0.009009345794
0.009642523364
0.008904205607
0.008514018692
0.008644859813
0.007565420561
0.008156542056
0.008081775701
0.007098130841
0.008507009346
0.001885514019
0.001212616822
0.001327102804
0.002862149533
0.002932242991
0.00398364486
0.003390186916
0.003345794393
0.003871495327
0.004102803738
0.005121495327
0.005670560748
0.004577102804
0.006841121495
0.006985981308
0.007252336449
0.008077102804
0.00808411215
0.007780373832
0.008219626168
0.009689252336
0.007806074766
0.007432242991
0.007432242991
0.008303738318
0.007686915888
0.009049065421
0.009768691589
0.01037383178
0.009971962617
0.009962616822
0.0103271028
0.01028738318
0.01010747664
0.01146495327
0.009271028037
0.01077570093
0.009322429907
0.01011915888
0.008862149533
0.00836682243
0.007873831776
0.001920560748
0.001123831776
0.002939252336
0.002857476636
0.002079439252
0.002380841121
0.00353271028
0.003693925234
0.004457943925
0.004672897196
0.005198598131
0.006060747664
0.006046728972
0.006385514019
0.007009345794
0.005890186916
0.007088785047
0.009558411215
0.007135514019
0.008735981308
0.008728971963
0.007539719626
0.007976635514
0.008927570093
0.009535046729
0.008509345794
0.009658878505
0.008142523364
0.01046261682
0.01100934579
0.008862149533
0.008320093458
0.00988317757
0.008228971963
0.008609813084
0.0105817757
0.00916588785
0.009235981308
0.009443925234
0.008801401869
0.009259345794
0.009238317757
0.001186915888
0.0008317757009
0.001565420561
0.002429906542
0.002301401869
0.002712616822
0.002929906542
0.00426635514
0.004836448598
0.004238317757
0.005313084112
0.005789719626
0.006934579439
0.00723364486
0.007892523364
0.006873831776
0.007544392523
0.008074766355
0.009848130841
0.007813084112
0.008969626168
0.008439252336
0.008628504673
0.01247663551
0.009355140187
0.008654205607
0.008827102804
0.008759345794
0.007369158879
0.006992990654
0.007705607477
0.007044392523
0.006002336449
0.007684579439
0.007147196262
0.008523364486
0.008908878505
0.009754672897
0.009011682243
0.008345794393
0.007278037383
0.007345794393
0.0009158878505
0.0008574766355
0.001322429907
0.001457943925
0.001995327103
0.002810747664
0.003964953271
0.003018691589
0.004504672897
0.004913551402
0.00411682243
0.004689252336
0.004976635514
0.006953271028
0.006448598131
0.006170560748
0.007404205607
0.005808411215
0.007808411215
0.007142523364
0.009754672897
0.007588785047
0.008481308411
0.006955607477
0.007890186916
0.006448598131
0.007413551402
0.00741588785
0.00864953271
0.007432242991
0.008035046729
0.008862149533
0.008425233645
0.007462616822
0.007362149533
0.008829439252
0.00798364486
0.008378504673
0.009612149533
0.008254672897
0.009586448598
0.008051401869
0.001464953271
0.001156542056
0.001109813084
0.001504672897
0.002042056075
0.003021028037
0.00375
0.004198598131
0.004161214953
0.003878504673
0.004864485981
0.004768691589
0.005336448598
0.005046728972
0.006264018692
0.00689953271
0.00771728972
0.007698598131
0.00763317757
0.009254672897
0.01113785047
0.009792056075
0.009079439252
0.009142523364
0.01023130841
0.008679906542
0.007946261682
0.007969626168
0.009974299065
0.008955607477
0.009728971963
0.01062383178
0.008901869159
0.008871495327
0.008058411215
0.009070093458
0.009474299065
0.009102803738
0.00764953271
0.008785046729
0.00778271028
0.007478971963
0.00136682243
0.00135046729
0.001331775701
0.00171728972
0.002507009346
0.002380841121
0.002981308411
0.003647196262
0.005785046729
0.00575
0.005301401869
0.006324766355
0.006560747664
0.006691588785
0.009067757009
0.007380841121
0.008565420561
0.009322429907
0.007560747664
0.009119158879
0.01011214953
0.01040420561
0.01018925234
0.01170794393
0.009855140187
0.01045794393
0.008056074766
0.007525700935
0.007894859813
0.008507009346
0.009644859813
0.009485981308
0.00898364486
0.0104088785
0.007995327103
0.00796728972
0.007009345794
0.00821728972
0.008728971963
0.009607476636
0.008453271028
0.00714953271
0.0004789719626
0.0007640186916
0.001077102804
0.001855140187
0.002037383178
0.002670560748
0.004264018692
0.00426635514
0.005200934579
0.004598130841
0.006067757009
0.00561682243
0.005411214953
0.006514018692
0.00786682243
0.007546728972
0.008102803738
0.008226635514
0.006822429907
0.008093457944
0.008894859813
0.008478971963
0.009182242991
0.008448598131
0.007878504673
0.009002336449
0.009815420561
0.00858411215
0.008878504673
0.007637850467
0.00766588785
0.008158878505
0.008794392523
0.008002336449
0.009343457944
0.00823364486
0.007546728972
0.008095794393
0.00796728972
0.008558411215
0.008189252336
0.007740654206
0.001051401869
0.0006612149533
0.001235981308
0.002336448598
0.003864485981
0.003278037383
0.00376635514
0.004478971963
0.003894859813
0.005189252336
0.005677570093
0.004200934579
0.004859813084
0.005221962617
0.006011682243
0.005789719626
0.00588317757
0.007432242991
0.006301401869
0.006341121495
0.006721962617
0.008827102804
0.007168224299
0.009939252336
0.009042056075
0.007976635514
0.008553738318
0.00863317757
0.007796728972
0.008179906542
0.007156542056
0.008056074766
0.008656542056
0.009378504673
0.008719626168
0.009294392523
0.008901869159
0.008890186916
0.01021962617
0.007820093458
0.006838785047
0.00841588785
0.001922897196
0.0007359813084
0.001278037383
0.001714953271
0.002324766355
0.002710280374
0.003726635514
0.004691588785
0.005072429907
0.00538317757
0.006175233645
0.006039719626
0.006539719626
0.007457943925
0.006004672897
0.006299065421
0.005943925234
0.007901869159
0.008628504673
0.008691588785
0.007439252336
0.008728971963
0.008815420561
0.00916588785
0.008577102804
0.008605140187
0.009011682243
0.007922897196
0.01013084112
0.00721728972
0.007922897196
0.007605140187
0.006572429907
0.007504672897
0.008771028037
0.009086448598
0.00973364486
0.009612149533
0.009488317757
0.01020093458
0.009306074766
0.008481308411
0.002093457944
0.0008060747664
0.001238317757
0.00163317757
0.002011682243
0.002579439252
0.003768691589
0.004289719626
0.003939252336
0.006114485981
0.005906542056
0.006198598131
0.007406542056
0.006490654206
0.006768691589
0.007221962617
0.006696261682
0.007976635514
0.008081775701
0.007792056075
0.007235981308
0.008070093458
0.008488317757
0.008518691589
0.008432242991
0.008950934579
0.008971962617
0.008345794393
0.008413551402
0.01023364486
0.008315420561
0.008738317757
0.008549065421
0.008471962617
0.01001869159
0.01011915888
0.008221962617
0.008845794393
0.008301401869
0.009822429907
0.008995327103
0.007551401869
0.001721962617
0.0008154205607
0.001285046729
0.002397196262
0.002621495327
0.002691588785
0.003193925234
0.004102803738
0.00446728972
0.004275700935
0.00508411215
0.004556074766
0.004878504673
0.00633411215
0.005712616822
0.008079439252
0.006794392523
0.00626635514
0.006394859813
0.007072429907
0.006053738318
0.006436915888
0.007981308411
0.008320093458
0.007427570093
0.007623831776
0.007549065421
0.00810046729
0.007799065421
0.009670560748
0.008049065421
0.009292056075
0.009338785047
0.008401869159
0.00761682243
0.01054672897
0.009011682243
0.008836448598
0.008021028037
0.009904205607
0.008735981308
0.008509345794
0.002072429907
0.001
0.001537383178
0.002605140187
0.003387850467
0.003605140187
0.00386682243
0.004439252336
0.00483411215
0.005348130841
0.005588785047
0.006546728972
0.005308411215
0.005880841121
0.005813084112
0.007598130841
0.006271028037
0.006864485981
0.008002336449
0.007219626168
0.01010747664
0.008827102804
0.007193925234
0.007035046729
0.00866588785
0.007775700935
0.007460280374
0.007637850467
0.006457943925
0.007696261682
0.00935046729
0.008710280374
0.008537383178
0.00935046729
0.008228971963
0.00746728972
0.006827102804
0.006880841121
0.007792056075
0.008021028037
0.008056074766
0.008525700935
0.00341588785
0.00186682243
0.002137850467
0.003112149533
0.002971962617
0.003051401869
0.004369158879
0.003418224299
0.003637850467
0.004074766355
0.005135514019
0.007235981308
0.006306074766
0.005792056075
0.00638317757
0.008063084112
0.006574766355
0.007191588785
0.008376168224
0.009063084112
0.007497663551
0.006210280374
0.006453271028
0.00766588785
0.007392523364
0.008488317757
0.008240654206
0.007053738318
0.006813084112
0.007268691589
0.008252336449
0.008523364486
0.01025233645
0.008434579439
0.00783411215
0.007549065421
0.00685046729
0.006294392523
0.00661682243
0.007107476636
0.006514018692
0.00776635514
0.002408878505
0.0007336448598
0.001492990654
0.001925233645
0.002446261682
0.00371728972
0.003441588785
0.003135514019
0.00361682243
0.004058411215
0.005007009346
0.005154205607
0.005988317757
0.004922897196
0.006252336449
0.007542056075
0.005913551402
0.008429906542
0.008329439252
0.01061682243
0.007535046729
0.007154205607
0.007579439252
0.008184579439
0.008661214953
0.008301401869
0.01083411215
0.009808411215
0.008119158879
0.008401869159
0.008785046729
0.00971728972
0.008822429907
0.009021028037
0.008170560748
0.009544392523
0.008030373832
0.007067757009
0.006418224299
0.00786682243
0.00708411215
0.007591121495
0.001088785047
0.001128504673
0.002612149533
0.003432242991
0.003698598131
0.004537383178
0.003801401869
0.00489953271
0.004322429907
0.006091121495
0.005168224299
0.006331775701
0.006315420561
0.007135514019
0.007112149533
0.007021028037
0.007091121495
0.008252336449
0.007878504673
0.008906542056
0.009238317757
0.007864485981
0.008308411215
0.009028037383
0.008752336449
0.009457943925
0.01022429907
0.009892523364
0.009226635514
0.009492990654
0.009343457944
0.009810747664
0.009939252336
0.01004672897
0.009728971963
0.01098130841
0.01084345794
0.0100864486
0.01084345794
0.01044859813
0.01010747664
0.01036214953
0.005259345794
0.004324766355
0.004707943925
0.006268691589
0.006815420561
0.007042056075
0.008448598131
0.007609813084
0.009432242991
0.007546728972
0.008997663551
0.01225
0.009670560748
0.01210981308
0.01090186916
0.01088785047
0.01046028037
0.01168691589
0.01059579439
0.009628504673
0.01448364486
0.01419626168
0.01204439252
0.01146495327
0.01128971963
0.01147429907
0.01314018692
0.01651401869
0.01407476636
0.01100233645
0.01221028037
0.01299299065
0.01301401869
0.01240186916
0.0120046729
0.01355607477
0.01308411215
0.01571495327
0.01632242991
0.01582009346
0.01845327103
0.01268925234
0.00683411215
0.007378504673
0.005806074766
0.007413551402
0.006156542056
0.01005373832
0.00964953271
0.01553738318
0.01093224299
0.01067990654
0.0119135514
0.01557009346
0.0170911215
0.01356542056
0.01334579439
0.01388317757
0.01422429907
0.01668457944
0.01251401869
0.01608878505
0.01715654206
0.01611682243
0.01731542056
0.01405841121
0.01430607477
0.01614485981
0.01771495327
0.01635981308
0.01836915888
0.01493691589
0.01220560748
0.01302570093
0.01290654206
0.01640186916
0.01629906542
0.01975233645
0.01657943925
0.01697429907
0.01803271028
0.01444859813
0.01591588785
0.01173831776
0.004432242991
0.01018224299
0.009044392523
0.007193925234
0.008315420561
0.01487616822
0.01545327103
0.01496728972
0.01591121495
0.01408411215
0.01206775701
0.01757476636
0.02463785047
0.01937616822
0.01469859813
0.01570093458
0.02348364486
0.01907242991
0.02027336449
0.02139953271
0.02142523364
0.02024766355
0.0198271028
0.01937850467
0.01691121495
0.01943457944
0.0173317757
0.01978971963
0.01566588785
0.01531074766
0.01587383178
0.0166588785
0.01883411215
0.01893925234
0.01796495327
0.01584579439
0.01804672897
0.0158364486
0.01821495327
0.01946495327
0.01528971963
0.01325934579
0.00360046729
0.008072429907
0.007918224299
0.01331542056
0.01021028037
0.0135864486
0.01722196262
0.01365420561
0.01623130841
0.01412616822
0.02029439252
0.01984579439
0.02499766355
0.02694859813
0.01969392523
0.02354439252
0.02783411215
0.02678037383
0.02225233645
0.02270560748
0.02310280374
0.02164953271
0.01958411215
0.0204135514
0.01996261682
0.01804205607
0.01647897196
0.01704672897
0.01972897196
0.01799065421
0.01395560748
0.01489018692
0.01521028037
0.01399299065
0.01446962617
0.01488317757
0.01306074766
0.0149953271
0.01636448598
0.01653971963
0.01286214953
0.01031308411
0.005292056075
0.008946261682
0.007443925234
0.009362149533
0.01231074766
0.01378971963
0.01554672897
0.01898130841
0.01404906542
0.01424299065
0.01563785047
0.02125
0.02897663551
0.0313411215
0.02933411215
0.03294392523
0.03019158879
0.03035046729
0.02870560748
0.02950934579
0.02204439252
0.02399766355
0.02360046729
0.0270911215
0.01810981308
0.01332476636
0.01403037383
0.01637149533
0.01650934579
0.01759579439
0.01304439252
0.01372897196
0.01442757009
0.01246261682
0.0136635514
0.0168271028
0.01535280374
0.01485981308
0.01322663551
0.01579672897
0.01443691589
0.01288551402
0.004985981308
0.007759345794
0.008922897196
0.0119088785
0.01470794393
0.01196028037