/*--------------------------------*- C++ -*----------------------------------*\
| =========                 |                                                 |
| \\      /  F ield         | OpenFOAM: The Open Source CFD Toolbox           |
|  \\    /   O peration     | Version:  v1706                                 |
|   \\  /    A nd           | Web:      www.OpenFOAM.com                      |
|    \\/     M anipulation  |                                                 |
\*---------------------------------------------------------------------------*/
FoamFile
{
    version     2.0;
    format      ascii;
    class       volScalarField;
    location    "3.996";
    object      dsmcNMean_mixture;
}
// * * * * * * * * * * * * * * * * * * * * * * * * * * * * * * * * * * * * * //

dimensions      [0 0 0 0 0 0 0];


internalField   nonuniform List<scalar> 
50792
(
0.001140186916
0.002119158879
0.004163551402
0.002873831776
0.003518691589
0.005154205607
0.005936915888
0.005443925234
0.006453271028
0.006074766355
0.007481308411
0.006637850467
0.008925233645
0.007803738318
0.008436915888
0.01065420561
0.008619158879
0.008929906542
0.009422897196
0.009257009346
0.01131542056
0.01134345794
0.0103317757
0.01118224299
0.01242757009
0.01021028037
0.01229439252
0.01403037383
0.01197663551
0.01240186916
0.01417056075
0.01231775701
0.01201869159
0.01243925234
0.0124953271
0.01198598131
0.01288551402
0.01152803738
0.01212149533
0.01272663551
0.01363084112
0.01360514019
0.001644859813
0.0009065420561
0.001315420561
0.001920560748
0.003214953271
0.003518691589
0.003719626168
0.004747663551
0.00451635514
0.005492990654
0.005497663551
0.00616588785
0.006586448598
0.007658878505
0.008728971963
0.008373831776
0.00761682243
0.008299065421
0.008684579439
0.008836448598
0.008829439252
0.00913317757
0.01003738318
0.01023598131
0.01124766355
0.009901869159
0.009855140187
0.01064485981
0.01090186916
0.01119392523
0.0110864486
0.0108364486
0.01039953271
0.009434579439
0.009537383178
0.01150934579
0.01017990654
0.01297663551
0.01176869159
0.01144158879
0.009091121495
0.00951635514
0.0008551401869
0.0009369158879
0.001712616822
0.002420560748
0.002950934579
0.00386682243
0.005789719626
0.004679906542
0.005345794393
0.006551401869
0.006934579439
0.005957943925
0.007957943925
0.00723364486
0.007731308411
0.007072429907
0.008140186916
0.009602803738
0.01021728972
0.01014953271
0.009859813084
0.00923364486
0.01071495327
0.01090654206
0.009663551402
0.01070327103
0.01029205607
0.008789719626
0.0109088785
0.01128037383
0.01071028037
0.01161448598
0.0106635514
0.01169392523
0.01205373832
0.01119392523
0.01151401869
0.01187383178
0.01256308411
0.0112453271
0.01100233645
0.01110747664
0.0008714953271
0.001348130841
0.001602803738
0.00225
0.002964953271
0.002829439252
0.003714953271
0.003838785047
0.004658878505
0.005801401869
0.007546728972
0.007598130841
0.008553738318
0.00675
0.007768691589
0.009436915888
0.009502336449
0.009091121495
0.008404205607
0.01226401869
0.01206308411
0.01169392523
0.009432242991
0.01199766355
0.01294392523
0.01070560748
0.01006775701
0.009943925234
0.01158411215
0.01239719626
0.01045327103
0.01102803738
0.01035280374
0.009878504673
0.01089719626
0.009922897196
0.01050700935
0.01166121495
0.01392757009
0.01199299065
0.01162850467
0.01143224299
0.001037383178
0.001843457944
0.001535046729
0.002577102804
0.002953271028
0.003406542056
0.005392523364
0.004436915888
0.005443925234
0.005836448598
0.00616588785
0.005518691589
0.006796728972
0.006707943925
0.008163551402
0.008544392523
0.009306074766
0.009186915888
0.01036448598
0.01068224299
0.01051869159
0.01430607477
0.01335514019
0.01153037383
0.01334579439
0.01254672897
0.01133411215
0.01002570093
0.01052102804
0.01226635514
0.01209813084
0.009408878505
0.01068457944
0.00928271028
0.01003271028
0.01096495327
0.01071028037
0.01163317757
0.01278037383
0.01078037383
0.01100700935
0.01004906542
0.002406542056
0.0009112149533
0.002242990654
0.002067757009
0.002836448598
0.002925233645
0.00325
0.004324766355
0.00516588785
0.004747663551
0.005240654206
0.007434579439
0.00625
0.007299065421
0.006880841121
0.007537383178
0.007705607477
0.008151869159
0.01016588785
0.01078504673
0.01102570093
0.01306775701
0.01400700935
0.01347196262
0.0100911215
0.01069158879
0.01114719626
0.01276635514
0.01314252336
0.009693925234
0.01207943925
0.009593457944
0.01139018692
0.01049065421
0.01028504673
0.01113317757
0.009530373832
0.0106635514
0.009918224299
0.01109579439
0.0109228972
0.009264018692
0.001682242991
0.0008060747664
0.001476635514
0.001885514019
0.002289719626
0.002927570093
0.004971962617
0.004974299065
0.004806074766
0.004906542056
0.005586448598
0.006070093458
0.007203271028
0.006385514019
0.006135514019
0.006469626168
0.008794392523
0.008378504673
0.009189252336
0.01118224299
0.01107009346
0.01297196262
0.01264018692
0.01096728972
0.01303504673
0.01298831776
0.01121495327
0.01182242991
0.00996728972
0.01069626168
0.01254906542
0.01182476636
0.01094626168
0.01033878505
0.01129672897
0.009913551402
0.01043691589
0.01236448598
0.01184813084
0.01340420561
0.01258411215
0.009873831776
0.001488317757
0.0009228971963
0.001348130841
0.001925233645
0.002530373832
0.003214953271
0.004371495327
0.004542056075
0.00476635514
0.006065420561
0.005852803738
0.00586682243
0.006579439252
0.007581775701
0.00796728972
0.009700934579
0.01112850467
0.01020560748
0.009668224299
0.01018457944
0.008997663551
0.01057476636
0.01091121495
0.009929906542
0.01143691589
0.01259345794
0.01265654206
0.01120327103
0.0113411215
0.01198598131
0.01286448598
0.01162383178
0.01125
0.01123598131
0.01136682243
0.0104182243
0.01280607477
0.01354906542
0.01269158879
0.01096028037
0.01113317757
0.01102570093
0.001857476636
0.00141588785
0.00248364486
0.002787383178
0.003787383178
0.004172897196
0.00421728972
0.005612149533
0.005906542056
0.006163551402
0.006278037383
0.00710046729
0.006642523364
0.007897196262
0.007969626168
0.008764018692
0.008890186916
0.008065420561
0.009142523364
0.01005140187
0.008871495327
0.0115817757
0.00846728972
0.009009345794
0.01055607477
0.01172429907
0.00985046729
0.01079205607
0.01013551402
0.01195794393
0.01296728972
0.01199766355
0.01259579439
0.01098364486
0.01224766355
0.01058411215
0.01388785047
0.01474065421
0.01235747664
0.01327570093
0.01206775701
0.009724299065
0.002422897196
0.0008341121495
0.001873831776
0.001843457944
0.004011682243
0.004257009346
0.004308411215
0.005105140187
0.005985981308
0.00651635514
0.006619158879
0.008182242991
0.00713317757
0.007404205607
0.007768691589
0.008294392523
0.007595794393
0.008700934579
0.01088551402
0.01063084112
0.01238551402
0.009941588785
0.01111448598
0.009894859813
0.01029906542
0.009457943925
0.01107943925
0.01135747664
0.01199766355
0.01361915888
0.01076635514
0.01152102804
0.009221962617
0.01191121495
0.0100046729
0.01113317757
0.01247196262
0.01288551402
0.0114135514
0.01290420561
0.0123317757
0.01035514019
0.002387850467
0.0009065420561
0.001757009346
0.002404205607
0.004077102804
0.00473364486
0.004023364486
0.005439252336
0.007095794393
0.006663551402
0.007179906542
0.006401869159
0.007051401869
0.006630841121
0.008544392523
0.008364485981
0.008621495327
0.008507009346
0.00833411215
0.009413551402
0.00911682243
0.01205841121
0.0112546729
0.01025233645
0.009560747664
0.009829439252
0.01004672897
0.01130607477
0.01087149533
0.01143925234
0.01121962617
0.01002803738
0.01194158879
0.0111635514
0.01210981308
0.01064018692
0.01238084112
0.01252336449
0.01327570093
0.01154906542
0.01201168224
0.0103271028
0.001822429907
0.001530373832
0.001904205607
0.002502336449
0.003158878505
0.004827102804
0.003927570093
0.005607476636
0.006785046729
0.006341121495
0.007051401869
0.00935046729
0.008481308411
0.008567757009
0.00788317757
0.00798364486
0.008838785047
0.009420560748
0.01166121495
0.01145560748
0.01065186916
0.01088084112
0.01043224299
0.009969626168
0.009553738318
0.01033878505
0.01098831776
0.01065420561
0.01199766355
0.01070560748
0.01231074766
0.01127336449
0.01180607477
0.009240654206
0.008841121495
0.009551401869
0.009852803738
0.01102570093
0.01081775701
0.01114719626
0.01038084112
0.00889953271
0.002955607477
0.001235981308
0.001549065421
0.002212616822
0.003168224299
0.004462616822
0.005359813084
0.004962616822
0.00598364486
0.006364485981
0.005593457944
0.008436915888
0.007950934579
0.007726635514
0.006988317757
0.006948598131
0.008436915888
0.008514018692
0.01048130841
0.01225233645
0.0102546729
0.00953271028
0.01203271028
0.01051869159
0.01098598131
0.01012383178
0.01091121495
0.01247663551
0.01384813084
0.01314252336
0.01150233645
0.01170093458
0.01332009346
0.0130771028
0.0126682243
0.01293691589
0.01270794393
0.01068691589
0.01035046729
0.01078037383
0.01036915888
0.008626168224
0.003448598131
0.002464953271
0.002130841121
0.002640186916
0.003689252336
0.004156542056
0.004196261682
0.006511682243
0.006086448598
0.005845794393
0.005820093458
0.007142523364
0.005348130841
0.008037383178
0.007689252336
0.007686915888
0.007593457944
0.008731308411
0.008908878505
0.008163551402
0.00861682243
0.01005140187
0.01129205607
0.01276401869
0.01232943925
0.01230373832
0.01298130841
0.01365654206
0.01365654206
0.01064018692
0.01127102804
0.01271728972
0.01225700935
0.01065654206
0.01091588785
0.01446728972
0.01341588785
0.01176168224
0.01229439252
0.01135514019
0.01153037383
0.009476635514
0.004990654206
0.001025700935
0.00196728972
0.002628504673
0.003007009346
0.003759345794
0.005112149533
0.005726635514
0.005658878505
0.00653271028
0.006144859813
0.006364485981
0.005953271028
0.007105140187
0.00789953271
0.007962616822
0.007014018692
0.008771028037
0.009962616822
0.009401869159
0.007932242991
0.009408878505
0.01060046729
0.01199065421
0.01105841121
0.01192523364
0.009238317757
0.01055373832
0.01180373832
0.01369392523
0.01263317757
0.01181074766
0.01194859813
0.01137850467
0.01350700935
0.0115864486
0.01221728972
0.01259345794
0.01198364486
0.00976635514
0.01057476636
0.008628504673
0.002509345794
0.0007827102804
0.001247663551
0.001841121495
0.003219626168
0.003502336449
0.003654205607
0.005
0.005329439252
0.006355140187
0.006446261682
0.006060747664
0.00648364486
0.008025700935
0.007514018692
0.008869158879
0.01057242991
0.009974299065
0.009551401869
0.01195794393
0.01064953271
0.01146962617
0.00946728972
0.01089719626
0.01047429907
0.01056542056
0.01311214953
0.01295093458
0.01101635514
0.01221728972
0.01043224299
0.009553738318
0.01076401869
0.009693925234
0.01192990654
0.009492990654
0.01142056075
0.009401869159
0.009794392523
0.0104088785
0.01038317757
0.01028971963
0.001754672897
0.0009135514019
0.001341121495
0.001871495327
0.002878504673
0.00310046729
0.004170560748
0.005492990654
0.005427570093
0.00685046729
0.004948598131
0.006042056075
0.007953271028
0.006887850467
0.008362149533
0.007873831776
0.007518691589
0.008901869159
0.01212850467
0.009859813084
0.008441588785
0.008918224299
0.009450934579
0.01098831776
0.01111915888
0.009408878505
0.01258411215
0.01113551402
0.01253504673
0.01151635514
0.0111728972
0.01127102804
0.01245327103
0.01329205607
0.01449065421
0.01391121495
0.01418224299
0.01307943925
0.0129953271
0.01447429907
0.01187616822
0.009322429907
0.00360046729
0.001070093458
0.001427570093
0.001778037383
0.002492990654
0.002932242991
0.003836448598
0.004130841121
0.005960280374
0.005997663551
0.005922897196
0.006198598131
0.006476635514
0.006661214953
0.007373831776
0.009070093458
0.008345794393
0.009378504673
0.01170560748
0.0114953271
0.00939953271
0.009761682243
0.009170560748
0.01146261682
0.009922897196
0.01072897196
0.009948598131
0.008163551402
0.009023364486
0.008714953271
0.01035514019
0.01042056075
0.009619158879
0.01014018692
0.01152336449
0.01342757009
0.01429672897
0.01097897196
0.01189953271
0.0123364486
0.01103504673
0.008890186916
0.00228271028
0.0008317757009
0.001714953271
0.002079439252
0.00264953271
0.003789719626
0.005336448598
0.004411214953
0.005355140187
0.006175233645
0.007572429907
0.006885514019
0.008053738318
0.008696261682
0.009565420561
0.008974299065
0.009425233645
0.01012616822
0.01031775701
0.0105911215
0.01004205607
0.0101728972
0.01068457944
0.01379439252
0.01126869159
0.01080607477
0.01353271028
0.01225700935
0.01229439252
0.01307943925
0.01243224299
0.01365186916
0.01101869159
0.01088084112
0.01162850467
0.01178037383
0.01298598131
0.01140186916
0.01009345794
0.01047897196
0.01062383178
0.009018691589
0.003313084112
0.0008971962617
0.001567757009
0.002712616822
0.003703271028
0.003976635514
0.004906542056
0.004721962617
0.005163551402
0.007677570093
0.008336448598
0.006848130841
0.00766588785
0.008535046729
0.008324766355
0.009864485981
0.009757009346
0.01080841121
0.008142523364
0.01148598131
0.01078271028
0.01075
0.01157943925
0.01397663551
0.01179205607
0.01170560748
0.01262149533
0.01234579439
0.0102453271
0.01069392523
0.01054672897
0.009404205607
0.01027102804
0.01152570093
0.00988317757
0.008890186916
0.01048831776
0.01065654206
0.01118925234
0.01025
0.01002803738
0.00963317757
0.005355140187
0.001107476636
0.002289719626
0.002841121495
0.004355140187
0.004168224299
0.004852803738
0.005808411215
0.00691588785
0.007196261682
0.007177570093
0.009460280374
0.008119158879
0.01265654206
0.009259345794
0.01030841121
0.01342990654
0.01221028037
0.01159813084
0.01249299065
0.01415420561
0.01210981308
0.01121962617
0.01100233645
0.01198130841
0.01147897196
0.01270794393
0.0118271028
0.01253971963
0.01048831776
0.01114719626
0.01048130841
0.01089252336
0.009864485981
0.009595794393
0.01085747664
0.009481308411
0.01086682243
0.009065420561
0.008091121495
0.009511682243
0.00873364486
0.003294392523
0.0007803738318
0.002448598131
0.002235981308
0.003102803738
0.003663551402
0.004376168224
0.004373831776
0.004714953271
0.005572429907
0.006373831776
0.007343457944
0.008313084112
0.008754672897
0.01148831776
0.01009813084
0.01020794393
0.01175233645
0.009857476636
0.0108271028
0.01108411215
0.01089719626
0.01293224299
0.01368925234
0.01053271028
0.01125
0.01180841121
0.01105140187
0.01012383178
0.01101635514
0.01203971963
0.01128271028
0.01201869159
0.01322663551
0.01006775701
0.01211448598
0.01022429907
0.01086448598
0.008420560748
0.009663551402
0.008904205607
0.007397196262
0.001130841121
0.00075
0.001558411215
0.001663551402
0.002885514019
0.003186915888
0.003390186916
0.004661214953
0.00478271028
0.00578271028
0.006231308411
0.005658878505
0.00635046729
0.008170560748
0.007135514019
0.008922897196
0.00903271028
0.01015420561
0.00976635514
0.008462616822
0.009408878505
0.01056542056
0.01216121495
0.01109579439
0.01395794393
0.01057476636
0.01117990654
0.01152102804
0.01040186916
0.0115911215
0.01301635514
0.01569158879
0.0146728972
0.01260981308
0.01411448598
0.01177336449
0.01387850467
0.01356308411
0.01235280374
0.01077570093
0.01003738318
0.009273364486
0.003364485981
0.001939252336
0.001705607477
0.00261682243
0.003331775701
0.003175233645
0.003925233645
0.004287383178
0.005373831776
0.006278037383
0.007574766355
0.007235981308
0.008107476636
0.008109813084
0.008478971963
0.007934579439
0.009278037383
0.01110280374
0.01030841121
0.00838317757
0.008514018692
0.009221962617
0.01024065421
0.009324766355
0.01243224299
0.01143691589
0.01161682243
0.009079439252
0.009021028037
0.008747663551
0.009700934579
0.01169626168
0.01248831776
0.01181074766
0.01037383178
0.01013084112
0.01130140187
0.01342757009
0.01153037383
0.01164018692
0.01061682243
0.008873831776
0.004137850467
0.0009299065421
0.001462616822
0.001995327103
0.002404205607
0.00289953271
0.003911214953
0.004425233645
0.00538317757
0.006464953271
0.007137850467
0.007469626168
0.008408878505
0.008221962617
0.009539719626
0.01015654206
0.009691588785
0.01045794393
0.009081775701
0.01115186916
0.008684579439
0.00975
0.009799065421
0.01022897196
0.01087149533
0.01196261682
0.01097196262
0.01060514019
0.01061915888
0.009927570093
0.0109228972
0.01201869159
0.01160981308
0.01247429907
0.01119626168
0.01101168224
0.009775700935
0.01087383178
0.00938317757
0.009268691589
0.009955607477
0.008789719626
0.004191588785
0.0008761682243
0.001574766355
0.001871495327
0.002593457944
0.003577102804
0.004997663551
0.00461682243
0.00489953271
0.005640186916
0.005257009346
0.006189252336
0.008238317757
0.009654205607
0.01018691589
0.01009345794
0.01011915888
0.009343457944
0.008186915888
0.009091121495
0.00838317757
0.007778037383
0.01060280374
0.0101635514
0.009981308411
0.01108878505
0.01315420561
0.01373130841
0.01228971963
0.01222429907
0.01251168224
0.01006308411
0.01239719626
0.01152102804
0.01294859813
0.01182009346
0.009088785047
0.01025
0.01126401869
0.01111682243
0.009780373832
0.01179439252
0.001427570093
0.0008457943925
0.002450934579
0.003247663551
0.002768691589
0.003654205607
0.003885514019
0.004357476636
0.004957943925
0.00538317757
0.006558411215
0.007392523364
0.007558411215
0.009240654206
0.009051401869
0.008974299065
0.01139252336
0.01128971963
0.01005140187
0.01153037383
0.01121028037
0.008894859813
0.009315420561
0.009637850467
0.01129906542
0.009960280374
0.01177570093
0.01154906542
0.01322196262
0.01176635514
0.01312850467
0.01269626168
0.01225700935
0.01270794393
0.01166588785
0.01154906542
0.01078971963
0.01066588785
0.009507009346
0.009820093458
0.008806074766
0.01039252336
0.002427570093
0.001275700935
0.001549065421
0.00339953271
0.003654205607
0.004943925234
0.004420560748
0.004462616822
0.005182242991
0.00558411215
0.006857476636
0.007677570093
0.006897196262
0.009207943925
0.008897196262
0.009095794393
0.009932242991
0.009925233645
0.009752336449
0.01021728972
0.01209579439
0.01032476636
0.01034813084
0.009478971963
0.01096495327
0.01065420561
0.01317757009
0.01332476636
0.01388317757
0.01352102804
0.01252336449
0.01296261682
0.01235514019
0.01378504673
0.01373598131
0.0125911215
0.01327570093
0.01149766355
0.01260280374
0.01129439252
0.01023598131
0.009703271028
0.003691588785
0.001497663551
0.003390186916
0.003478971963
0.002810747664
0.003137850467
0.004450934579
0.004792056075
0.005787383178
0.005918224299
0.006427570093
0.00746728972
0.008443925234
0.007976635514
0.008537383178
0.008193925234
0.008939252336
0.01114252336
0.009369158879
0.01096495327
0.01057242991
0.009175233645
0.00958411215
0.01160514019
0.01196728972
0.01118691589
0.01260280374
0.01111915888
0.01314953271
0.01314018692
0.01093691589
0.0114135514
0.01186682243
0.01021495327
0.01037149533
0.01301869159
0.0118364486
0.01184579439
0.01238084112
0.01283878505
0.01228971963
0.01175934579
0.002102803738
0.001745327103
0.002735981308
0.003261682243
0.003191588785
0.003803738318
0.004609813084
0.00573364486
0.006144859813
0.00538317757
0.006348130841
0.007093457944
0.008742990654
0.00889953271
0.009831775701
0.008712616822
0.01008878505
0.009988317757
0.01219626168
0.00978271028
0.0105911215
0.01046495327
0.01050233645
0.01511682243
0.01221962617
0.01231542056
0.01076401869
0.01047897196
0.00908411215
0.008705607477
0.009696261682
0.009004672897
0.00848364486
0.01034345794
0.009453271028
0.01021728972
0.01088785047
0.01181308411
0.01103971963
0.01125700935
0.008570093458
0.008745327103
0.002079439252
0.001474299065
0.00164953271
0.001855140187
0.002474299065
0.003455607477
0.005198598131
0.00446728972
0.006369158879
0.00625
0.005558411215
0.00635046729
0.006588785047
0.008682242991
0.008268691589
0.008049065421
0.009427570093
0.007303738318
0.009299065421
0.008764018692
0.01143691589
0.009859813084
0.01061915888
0.009228971963
0.01145093458
0.00966588785
0.01067056075
0.009691588785
0.01102336449
0.009754672897
0.01166121495
0.01067990654
0.01029672897
0.01029439252
0.01059579439
0.01081775701
0.01021728972
0.01079205607
0.01364719626
0.01125
0.01207476636
0.01013317757
0.00316588785
0.002070093458
0.00148364486
0.001890186916
0.002469626168
0.003703271028
0.004448598131
0.005018691589
0.004827102804
0.004904205607
0.006203271028
0.006191588785
0.006158878505
0.006105140187
0.008147196262
0.009189252336
0.008831775701
0.008929906542
0.009081775701
0.01081542056
0.01319859813
0.01153037383
0.01168224299
0.01208411215
0.01233411215
0.0110771028
0.01012149533
0.01107009346
0.01165420561
0.01115186916
0.01198831776
0.0129135514
0.01121728972
0.01157242991
0.009761682243
0.01099065421
0.01170327103
0.01179906542
0.009925233645
0.01139719626
0.009593457944
0.009593457944
0.001820093458
0.001598130841
0.00216588785
0.002191588785
0.002950934579
0.003154205607
0.003546728972
0.004259345794
0.006560747664
0.007703271028
0.007091121495
0.007820093458
0.008023364486
0.008313084112
0.01090186916
0.008943925234
0.01003037383
0.01116121495
0.009390186916
0.01134813084
0.01264485981
0.01295327103
0.01364485981
0.01448364486
0.01232242991
0.01207943925
0.009773364486
0.009684579439
0.0105817757
0.01086682243
0.01176635514
0.0124135514
0.01202803738
0.01287383178
0.01068691589
0.01111448598
0.01107476636
0.01169859813
0.01180140187
0.01217056075
0.01153037383
0.01000934579
0.001226635514
0.0008598130841
0.001670560748
0.002049065421
0.002490654206
0.003128504673
0.004764018692
0.005310747664
0.006721962617
0.006086448598
0.007446261682
0.007245327103
0.007184579439
0.00838317757
0.009651869159
0.00926635514
0.009799065421
0.01139018692
0.009112149533
0.01039953271
0.01085747664
0.01035747664
0.01176168224
0.01071728972
0.009990654206
0.01166588785
0.01224299065
0.01097429907
0.01198831776
0.009745327103
0.009852803738
0.01039485981
0.01189018692
0.01047196262
0.01193925234
0.01090654206
0.01022663551
0.01256074766
0.01120560748
0.01148364486
0.01078738318
0.01005841121
0.001228971963
0.0008878504673
0.002175233645
0.002894859813
0.004614485981
0.003941588785
0.00485046729
0.00576635514
0.005123831776
0.00688317757
0.006946261682
0.005574766355
0.006296728972
0.006684579439
0.007710280374
0.007735981308
0.007254672897
0.009228971963
0.007885514019
0.007707943925
0.008198598131
0.01061682243
0.009170560748
0.01139719626
0.01062850467
0.009759345794
0.01014018692
0.01025700935
0.009221962617
0.01067757009
0.008780373832
0.01016588785
0.01058878505
0.01128504673
0.01007242991
0.01111682243
0.01177803738
0.01273130841
0.01250233645
0.009859813084
0.009806074766
0.01058878505
0.002144859813
0.0008434579439
0.001518691589
0.002154205607
0.002707943925
0.003191588785
0.004306074766
0.005376168224
0.006044392523
0.007037383178
0.00791588785
0.008207943925
0.008247663551
0.009037383178
0.007829439252
0.008261682243
0.007953271028
0.01029205607
0.01042523364
0.0109228972
0.009528037383
0.01057476636
0.01051168224
0.01088551402
0.01030841121
0.01027336449
0.01099766355
0.009455607477
0.01223831776
0.01019158879
0.01035981308
0.0101635514
0.009322429907
0.01083411215
0.01147663551
0.01128504673
0.01183878505
0.01202102804
0.0130046729
0.01332009346
0.01263785047
0.01111682243
0.002621495327
0.0008948598131
0.001605140187
0.002308411215
0.002808411215
0.003443925234
0.004829439252
0.00535046729
0.00560046729
0.007434579439
0.007731308411
0.008698598131
0.009357476636
0.008413551402
0.008707943925
0.009046728972
0.008738317757
0.01043224299
0.01084345794
0.009565420561
0.009109813084
0.01020327103
0.0104953271
0.01108878505
0.01156542056
0.01120093458
0.01123598131
0.01115186916
0.01138317757
0.01360747664
0.01070327103
0.01195794393
0.01120794393
0.01084345794
0.01322663551
0.01384345794
0.01144158879
0.0116682243
0.01114719626
0.0121682243
0.01125934579
0.009614485981
0.003404205607
0.001095794393
0.001628504673
0.002880841121
0.003102803738
0.003521028037
0.003764018692
0.004780373832
0.005570093458
0.005481308411
0.006686915888
0.006121495327
0.005869158879
0.007511682243
0.006787383178
0.009056074766
0.00848364486
0.007668224299
0.008822429907
0.008964953271
0.00801635514
0.009464953271
0.0104182243
0.0111728972
0.009656542056
0.01027803738
0.01105140187
0.01029672897
0.009976635514
0.01270327103
0.01087616822
0.0122546729
0.01200934579
0.01205373832
0.01158411215
0.0140911215
0.01106775701
0.01080607477
0.01060747664
0.01200233645
0.01060981308
0.01013551402
0.002207943925
0.001051401869
0.001728971963
0.002808411215
0.003757009346
0.004186915888
0.005002336449
0.005196261682
0.005962616822
0.006481308411
0.006745327103
0.007698598131
0.006623831776
0.007373831776
0.00775
0.01021728972
0.008114485981
0.008873831776
0.01012850467
0.009345794393
0.01273831776
0.01039252336
0.008918224299
0.009714953271
0.01171028037
0.01040420561
0.01136214953
0.01019626168
0.008815420561
0.01042523364
0.0124953271
0.01301635514
0.01256542056
0.01237383178
0.01094859813
0.01046028037
0.009418224299
0.009327102804
0.01012149533
0.01035514019
0.01038084112
0.01136448598
0.003612149533
0.002093457944
0.002427570093
0.00353271028
0.003507009346
0.003757009346
0.005817757009
0.004679906542
0.005455607477
0.005158878505
0.006135514019
0.008455607477
0.007464953271
0.007686915888
0.008796728972
0.0101588785
0.008551401869
0.008696261682
0.01037616822
0.01048598131
0.009735981308
0.00808411215
0.008037383178
0.009219626168
0.01004205607
0.01043224299
0.009799065421
0.008696261682
0.008525700935
0.00901635514
0.01071728972
0.01092523364
0.01301869159
0.01157009346
0.01111682243
0.01092523364
0.008969626168
0.009299065421
0.009320093458
0.009448598131
0.008691588785
0.009934579439
0.002799065421
0.001058411215
0.001897196262
0.002502336449
0.003123831776
0.004941588785
0.004392523364
0.004004672897
0.004507009346
0.004964953271
0.006137850467
0.00641588785
0.007714953271
0.006507009346
0.008359813084
0.00885046729
0.007509345794
0.009887850467
0.00978271028
0.01178504673
0.008913551402
0.008504672897
0.008859813084
0.009771028037
0.01028504673
0.01052102804
0.01278271028
0.01147663551
0.009586448598
0.009906542056
0.0105046729
0.01174766355
0.01031308411
0.01040654206
0.01042056075
0.01179906542
0.01088785047
0.009348130841
0.008007009346
0.01007242991
0.008864485981
0.00923364486
0.001112149533
0.00128271028
0.00285046729
0.003714953271
0.004317757009
0.005
0.004637850467
0.005918224299
0.005170560748
0.007322429907
0.006792056075
0.007422897196
0.007976635514
0.008476635514
0.008287383178
0.008161214953
0.008261682243
0.009495327103
0.009362149533
0.0103271028
0.01090654206
0.009289719626
0.0106588785
0.01104906542
0.0114088785
0.01287149533
0.01214018692
0.01185514019
0.01120560748
0.01161448598
0.01146495327
0.01225700935
0.01233878505
0.01239018692
0.01213551402
0.01310514019
0.01317523364
0.01393691589
0.01264485981
0.01252570093
0.01234345794
0.01257943925
0.007336448598
0.007021028037
0.005871495327
0.008320093458
0.009570093458
0.008306074766
0.009343457944
0.00911682243
0.01250934579
0.01163317757
0.01119626168
0.01511448598
0.01412850467
0.01407009346
0.01351401869
0.01346728972
0.01355373832
0.01417056075
0.01335514019
0.01293925234
0.01798364486
0.01677102804
0.01529672897
0.01563317757
0.0151682243
0.01660514019
0.01968457944
0.0209953271
0.01765654206
0.0145864486
0.01613551402
0.01675233645
0.01685280374
0.01606308411
0.0158411215
0.01727336449
0.01664252336
0.01998598131
0.0203271028
0.02004906542
0.02251635514
0.01667056075
0.00825
0.009142523364
0.009301401869
0.009647196262
0.009355140187
0.01476635514
0.01350934579
0.02107009346
0.01548364486
0.01848598131
0.01450934579
0.01893224299
0.02214252336
0.01640420561
0.01588317757
0.0178411215
0.01878971963
0.01995560748
0.01658411215
0.02154205607
0.02161682243
0.021
0.02115186916
0.01854439252
0.01864252336
0.02271495327
0.02250233645
0.02298130841
0.02252336449
0.01926168224
0.01668457944
0.01683411215
0.01743224299
0.02128738318
0.02044392523
0.02452102804
0.02029672897
0.0204228972
0.02174766355
0.02013551402
0.02026401869
0.016
0.005441588785
0.01164252336
0.01125233645
0.00925
0.01035747664
0.01739018692
0.02208878505
0.01931775701
0.02229205607
0.02118925234
0.0170864486
0.02246495327
0.03236214953
0.02375700935
0.01753971963
0.01952803738
0.02933878505
0.02592056075
0.02534579439
0.0263317757
0.02622429907
0.02586682243
0.02573364486
0.02614252336
0.02321028037
0.02388084112
0.02208411215
0.02510514019
0.02202102804
0.02079906542
0.0214088785
0.02051869159
0.0221682243
0.02275233645
0.02189252336
0.02000700935
0.02274065421
0.02017523364
0.02247429907
0.02445794393
0.01990186916
0.01736214953
0.005320093458
0.009313084112
0.009698598131
0.01504906542
0.01257009346
0.01513317757
0.02014252336
0.01735514019
0.02331074766
0.0198317757
0.02405607477
0.02482476636
0.03004205607
0.03432476636
0.02569392523
0.03002570093
0.03519859813
0.03373130841
0.02633878505
0.0276635514
0.0277453271
0.02760747664
0.02495560748
0.02735747664
0.02336915888
0.02464252336
0.02084579439
0.02127803738
0.0245
0.02292056075
0.01939719626
0.01997897196
0.01987149533
0.01772897196
0.01864719626
0.01902803738
0.01734579439
0.01927336449
0.01989018692
0.02167990654
0.01768925234
0.01373598131
0.006936915888
0.01214018692
0.009796728972
0.01145093458
0.01513551402
0.01725
0.02127102804
0.02189018692
0.01960981308
0.01966121495
0.02191121495
0.02582009346
0.03247663551
0.03736915888
0.03394859813
0.04185981308
0.03958411215
0.03882943925
0.03423130841
0.03478971963
0.02785981308
0.03061214953
0.02819392523
0.0328411215
0.02133411215
0.01753271028
0.01903271028
0.01993691589
0.01974299065
0.02052336449
0.01723831776
0.01702803738
0.0169953271
0.0159182243
0.01620560748
0.0197546729
0.02013084112
0.01968224299
0.01739018692
0.01945327103
0.01810280374
0.01573831776
0.006502336449
0.01043925234
0.01149065421
0.01538551402
0.01755841121
0.0140911215
0.02180373832
0.02197663551
0.0232546729
0.02672429907
0.02789953271
0.03310514019
0.03313551402
0.04388084112
0.04721028037
0.04811915888
0.05957476636
0.04975233645
0.03497429907
0.03462383178
0.02914719626
0.02575
0.02578738318
0.03305373832
0.02722897196
0.01758878505
0.01472196262
0.01589719626
0.01794158879
0.01346962617
0.01233878505
0.01479906542
0.01634579439
0.0156682243
0.01351401869
0.01453037383
0.01954439252
0.02010046729
0.0184228972
0.01613084112
0.01570794393
0.01463317757
0.007025700935
0.01453504673
0.01757009346
0.01839953271
0.0207546729
0.02022429907
0.02547663551
0.02253504673
0.02667523364
0.02569158879
0.03106074766
0.04302803738
0.04885280374
0.05438785047
0.06915420561
0.06623831776
0.1389018692