/*--------------------------------*- C++ -*----------------------------------*\
| =========                 |                                                 |
| \\      /  F ield         | OpenFOAM: The Open Source CFD Toolbox           |
|  \\    /   O peration     | Version:  v1706                                 |
|   \\  /    A nd           | Web:      www.OpenFOAM.com                      |
|    \\/     M anipulation  |                                                 |
\*---------------------------------------------------------------------------*/
FoamFile
{
    version     2.0;
    format      ascii;
    class       volScalarField;
    location    "3.996";
    object      dsmcSigmaTcRMax;
}
// * * * * * * * * * * * * * * * * * * * * * * * * * * * * * * * * * * * * * //

dimensions      [0 3 -1 0 0 0 0];


internalField   nonuniform List<scalar> 
50792
(
1.963865242e-16
2.976205778e-16
3.39470764e-16
3.210366904e-16
3.832644932e-16
2.469343093e-16
3.026196678e-16
4.22758505e-16
4.564528016e-16
4.04717191e-16
4.386017684e-16
1.094734169e-15
4.461387e-16
7.997640961e-16
4.030605307e-16
3.665737196e-16
3.74000484e-16
4.780712938e-16
1.06323001e-15
1.086644936e-15
1.025523062e-15
1.00171464e-15
1.012957e-15
9.051187808e-16
9.925095441e-16
5.084898838e-16
4.9412957e-16
9.959469795e-16
8.800658276e-16
1.013788903e-15
1.133515613e-15
1.083278989e-15
1.139240947e-15
1.123985878e-15
8.916674127e-16
1.16566552e-15
5.922870961e-16
4.020221543e-16
1.151921185e-15
1.152563997e-15
1.088757491e-15
1.041150244e-15
1.963865242e-16
1.963865242e-16
1.963865242e-16
3.627280848e-16
3.683639892e-16
5.525741852e-16
1.035920456e-15
3.692531338e-16
2.937767964e-16
3.408313865e-16
3.871844871e-16
1.050318922e-15
1.043294725e-15
1.187064951e-15
1.192392774e-15
1.256104719e-15
1.232528919e-15
1.246319423e-15
1.21725966e-15
1.1945638e-15
1.22043089e-15
1.013801592e-15
1.141563793e-15
1.262517032e-15
1.249717067e-15
1.263723722e-15
1.117362847e-15
1.204345843e-15
1.192203264e-15
1.227518731e-15
1.085069105e-15
1.243082386e-15
1.232514194e-15
1.005080869e-15
1.155883064e-15
1.258672924e-15
1.154994131e-15
1.149574054e-15
9.82943185e-16
1.152078285e-15
1.026583333e-15
3.392046744e-16
3.203352126e-16
4.419042215e-16
3.016216102e-16
3.725864183e-16
2.809322362e-16
3.922421969e-16
4.893211921e-16
1.166349936e-15
4.65353599e-16
1.188041788e-15
1.277540022e-15
1.168523223e-15
1.26283953e-15
1.124004584e-15
1.186792233e-15
1.18418592e-15
1.101252553e-15
1.315924676e-15
1.307378362e-15
1.189749042e-15
1.21209322e-15
1.00934915e-15
1.227819604e-15
1.12013998e-15
1.14942376e-15
1.172276045e-15
1.190275471e-15
9.94590021e-16
1.263903429e-15
1.225352919e-15
1.212420044e-15
1.046140995e-15
1.26753208e-15
1.122097668e-15
1.23443083e-15
1.180532287e-15
1.219695159e-15
1.215594365e-15
1.160562488e-15
1.105616169e-15
1.151492876e-15
3.739227834e-16
1.963865242e-16
1.963865242e-16
1.175010443e-15
3.180266496e-16
3.259418522e-16
3.722352079e-16
3.954169691e-16
4.727511351e-16
1.062017194e-15
2.68329428e-16
1.285211201e-15
1.251274632e-15
1.263361915e-15
1.106654445e-15
1.188248533e-15
1.225365867e-15
1.004867423e-15
1.14450895e-15
1.192267096e-15
1.240863671e-15
1.189077651e-15
1.188248978e-15
1.058283657e-15
1.307599365e-15
1.252363515e-15
1.188899789e-15
1.205248442e-15
1.212754586e-15
1.169438006e-15
1.202190877e-15
1.072120011e-15
1.031794254e-15
6.575918286e-16
1.249650804e-15
1.175234271e-15
1.210778992e-15
1.240063984e-15
1.225383533e-15
1.243530766e-15
1.206668406e-15
1.203159832e-15
1.091333011e-15
1.963865242e-16
2.968867741e-16
4.480247252e-16
3.960303258e-16
3.80162379e-16
1.175708079e-15
4.386517153e-16
1.145854045e-15
5.939502104e-16
9.802845232e-16
1.006508163e-15
6.582360122e-16
1.024364698e-15
1.093147629e-15
1.021661754e-15
1.246777411e-15
1.048471366e-15
1.217787615e-15
1.151179933e-15
1.178434023e-15
1.174939217e-15
1.210420456e-15
1.126714322e-15
1.150619689e-15
1.196885026e-15
1.174135331e-15
1.242777674e-15
1.098709671e-15
1.120886402e-15
1.25995056e-15
1.206340621e-15
1.022068788e-15
1.245947765e-15
8.895495017e-16
8.3162102e-16
1.17604094e-15
1.268895855e-15
1.257729266e-15
1.170488227e-15
1.188915233e-15
1.198596059e-15
8.354205335e-16
2.642935351e-16
1.963865242e-16
1.963865242e-16
4.141030851e-16
1.139379125e-15
4.141030851e-16
2.724140721e-16
1.085491591e-15
1.164202762e-15
1.089842052e-15
1.00086464e-15
1.265411077e-15
1.199090679e-15
3.96912431e-16
1.160268551e-15
9.805896653e-16
1.189954097e-15
9.302197919e-16
1.065099378e-15
1.142694465e-15
1.27577338e-15
1.243878852e-15
1.186888251e-15
1.191335246e-15
1.146124398e-15
1.204752726e-15
1.143446238e-15
1.176906289e-15
1.182107075e-15
8.853125716e-16
1.232568943e-15
1.11837809e-15
1.13339328e-15
1.157964024e-15
1.307296302e-15
1.215857184e-15
1.215364953e-15
1.027103016e-15
1.114398739e-15
1.198801193e-15
1.204620409e-15
8.967573379e-16
1.963865242e-16
1.963865242e-16
2.147781096e-16
3.604356857e-16
3.08283014e-16
3.460218115e-16
1.118620102e-15
1.17794072e-15
6.947993612e-16
1.097689591e-15
1.250997055e-15
1.181264815e-15
1.215403867e-15
1.182375294e-15
9.258892034e-16
1.070472215e-15
1.17305571e-15
1.234912843e-15
1.132152809e-15
1.17708537e-15
1.234090154e-15
1.267730279e-15
1.251499904e-15
9.168649489e-16
1.255952383e-15
1.248419024e-15
9.93003855e-16
1.206723359e-15
1.192237661e-15
1.02621598e-15
1.194411182e-15
1.262484854e-15
1.207412155e-15
1.204733564e-15
1.188792478e-15
1.12004446e-15
1.201684553e-15
1.079055358e-15
1.110383988e-15
1.256567873e-15
1.224350523e-15
9.742336998e-16
1.963865242e-16
1.963865242e-16
2.610009814e-16
3.147775714e-16
3.239773733e-16
1.167773854e-15
1.210909113e-15
1.183024776e-15
9.954641394e-16
1.26388821e-15
1.186200818e-15
7.63866182e-16
7.564086569e-16
6.758977091e-16
1.269471167e-15
1.237421706e-15
1.356957419e-15
1.240910509e-15
1.228717803e-15
1.077277591e-15
1.016399549e-15
1.147263793e-15
1.176598176e-15
1.178601512e-15
1.219656902e-15
1.081814513e-15
1.026336211e-15
1.255938299e-15
1.31396171e-15
1.245866981e-15
1.139100016e-15
1.182381398e-15
1.199961227e-15
1.211302025e-15
1.203258691e-15
1.269478678e-15
1.216609724e-15
1.140464638e-15
1.201402134e-15
1.228046268e-15
1.224309769e-15
1.025303401e-15
1.963865242e-16
1.963865242e-16
3.832878865e-16
1.238354464e-15
3.082441645e-16
1.17803411e-15
3.781185135e-16
1.217628004e-15
1.198380888e-15
1.134937886e-15
1.162875352e-15
1.188223177e-15
6.687700715e-16
1.053857209e-15
1.224806711e-15
1.264537924e-15
1.050734117e-15
4.767881787e-16
1.13705099e-15
1.01728888e-15
9.155036112e-16
1.24751524e-15
1.141602208e-15
1.095037693e-15
1.168907199e-15
9.83828944e-16
1.093992467e-15
1.071139881e-15
1.121159565e-15
1.130347355e-15
1.166221417e-15
1.148279158e-15
1.207591644e-15
1.117364883e-15
1.030934971e-15
1.063466765e-15
1.246231912e-15
1.13674217e-15
1.240788358e-15
1.289317348e-15
1.224497615e-15
8.440978901e-16
1.963865242e-16
1.963865242e-16
3.525397277e-16
3.534510769e-16
4.44861867e-16
3.934832775e-16
5.023321758e-16
1.185013102e-15
1.233141775e-15
9.321459542e-16
9.879993665e-16
1.202694452e-15
1.223419596e-15
1.229978966e-15
1.227566e-15
1.192153401e-15
1.09457084e-15
1.198168262e-15
8.237131693e-16
1.106071795e-15
1.187029447e-15
1.065268141e-15
1.245675993e-15
1.26443015e-15
1.15787038e-15
9.464037835e-16
1.239397675e-15
1.222212308e-15
1.247948578e-15
1.204076845e-15
1.080206112e-15
1.13855628e-15
6.540445396e-16
1.227048888e-15
1.150486077e-15
1.143123045e-15
1.224613678e-15
1.313673846e-15
1.174439657e-15
1.226689161e-15
1.117000283e-15
1.131566275e-15
1.963865242e-16
1.963865242e-16
4.202574148e-16
2.460017244e-16
2.217423249e-16
4.372451506e-16
9.976072693e-16
1.211685086e-15
3.78254071e-16
1.13864826e-15
1.223026018e-15
4.363585616e-16
1.255256371e-15
6.597213687e-16
1.041798495e-15
1.11231129e-15
1.083823091e-15
1.245813202e-15
1.154335998e-15
1.245174689e-15
1.210216999e-15
1.16588248e-15
1.044994978e-15
1.254482702e-15
1.207214145e-15
1.166907199e-15
1.070398981e-15
1.181482564e-15
1.180984017e-15
1.118967503e-15
1.092514928e-15
8.200862736e-16
1.256700129e-15
1.189840401e-15
1.244823827e-15
1.200766414e-15
1.16607905e-15
1.224345971e-15
1.255619691e-15
1.237219109e-15
1.182735099e-15
1.126203128e-15
1.963865242e-16
4.53271326e-16
2.716885968e-16
4.037654403e-16
2.93342946e-16
3.067621843e-16
4.279094363e-16
1.033252102e-15
1.182910624e-15
3.504478439e-16
1.287197106e-15
1.218844465e-15
6.055510282e-16
1.092711636e-15
7.065365948e-16
3.442501971e-16
9.776099347e-16
1.221289308e-15
1.268072368e-15
1.172619125e-15
1.208107036e-15
1.266269227e-15
1.255813885e-15
1.193754637e-15
9.099802074e-16
1.207079638e-15
1.244129359e-15
1.252551874e-15
1.223399735e-15
1.236686754e-15
1.209909367e-15
1.185770153e-15
1.23592096e-15
1.170594329e-15
1.084602398e-15
7.778060914e-16
1.146185653e-15
1.172576803e-15
1.243647837e-15
1.212709386e-15
1.157857077e-15
1.117594821e-15
3.41896327e-16
3.390110363e-16
3.614470795e-16
4.7967321e-16
3.910078834e-16
1.041609739e-15
1.197940987e-15
7.986770155e-16
1.150666697e-15
4.429786211e-16
1.113598653e-15
1.157899354e-15
1.154905214e-15
1.219484158e-15
8.13414721e-16
3.311469413e-16
1.141154832e-15
1.224345887e-15
1.256990136e-15
1.099725044e-15
9.737517561e-16
1.087815805e-15
1.234555879e-15
1.205439584e-15
1.146599064e-15
1.197201488e-15
1.20526225e-15
1.158141976e-15
1.229230874e-15
1.010532138e-15
1.159074261e-15
1.265422288e-15
1.043037256e-15
1.199026653e-15
1.287619489e-15
1.092954631e-15
1.177121766e-15
1.151690912e-15
1.234639774e-15
1.132859296e-15
1.240412607e-15
1.087803024e-15
1.963865242e-16
4.385324934e-16
3.747899538e-16
2.814339733e-16
1.179695038e-15
3.885715042e-16
8.315577398e-16
1.135074487e-15
1.052485472e-15
1.154758465e-15
1.114187412e-15
6.357188158e-16
4.425462987e-16
1.112424948e-15
1.2016712e-15
1.048255389e-15
1.161007645e-15
1.174890288e-15
1.209465113e-15
2.918393887e-16
1.209885206e-15
1.134088411e-15
1.217765649e-15
1.229631211e-15
1.148853646e-15
1.181229291e-15
9.896103225e-16
1.177319207e-15
1.160468198e-15
1.209312182e-15
1.234234e-15
1.108198713e-15
1.104952875e-15
1.164405914e-15
1.132468138e-15
1.136703459e-15
1.147976932e-15
1.155396266e-15
9.963054688e-16
1.077152437e-15
1.22012552e-15
1.113380679e-15
1.963865242e-16
2.78153886e-16
2.398257549e-16
3.159230676e-16
3.467258634e-16
1.166707052e-15
9.064978087e-16
1.092424514e-15
3.746307525e-16
1.209097515e-15
1.170664571e-15
1.207150861e-15
1.028404971e-15
1.15761375e-15
1.191593472e-15
1.17731386e-15
1.145088053e-15
1.123829234e-15
1.197724405e-15
1.006424756e-15
1.180162335e-15
1.217644429e-15
1.199271891e-15
1.145028401e-15
1.197990964e-15
1.048583155e-15
1.198879721e-15
1.199121152e-15
1.203548181e-15
1.190524935e-15
1.236585288e-15
1.137126542e-15
1.149032246e-15
1.145522626e-15
1.243755793e-15
1.053378152e-15
1.027288586e-15
1.1875497e-15
9.25053427e-16
1.152537614e-15
1.242152377e-15
4.367242733e-16
1.963865242e-16
1.963865242e-16
1.963865242e-16
3.528846916e-16
9.960163135e-16
5.018962616e-16
1.243725915e-15
1.128055723e-15
6.516061984e-16
1.103652066e-15
1.021606468e-15
1.213288541e-15
8.479817705e-16
1.226509527e-15
1.111511817e-15
1.158076021e-15
1.260969354e-15
1.110163192e-15
1.07910935e-15
1.267623694e-15
1.145951513e-15
1.176414916e-15
1.108802391e-15
1.07752517e-15
1.007067012e-15
1.108760316e-15
1.314767361e-15
1.148131144e-15
1.256394194e-15
1.226327695e-15
1.264097983e-15
1.144905037e-15
1.145753839e-15
1.153651922e-15
1.239304702e-15
1.240830734e-15
1.227639243e-15
1.094712828e-15
1.178317236e-15
1.071571127e-15
8.270426585e-16
9.867444435e-16
1.963865242e-16
1.963865242e-16
3.078851872e-16
2.421441428e-16
3.37676515e-16
4.610494754e-16
1.050299582e-15
1.236614997e-15
1.120627851e-15
1.092363249e-15
4.124109125e-16
1.054317763e-15
3.739334239e-16
1.304425541e-15
1.197173265e-15
1.058183291e-15
1.077565068e-15
1.246254236e-15
1.135885974e-15
1.25591754e-15
1.103278331e-15
1.232800369e-15
1.208190913e-15
7.99330138e-16
1.154853781e-15
9.552222937e-16
1.083388511e-15
1.23329738e-15
1.199614335e-15
1.213568687e-15
1.161642851e-15
1.158582437e-15
1.145412329e-15
1.311344286e-15
1.215869857e-15
1.107925652e-15
1.214813893e-15
1.144786044e-15
1.19403884e-15
1.254776243e-15
1.143754541e-15
9.200647298e-16
1.963865242e-16
3.485845903e-16
2.000785985e-16
3.167791904e-16
2.481957856e-16
3.363295691e-16
3.969971199e-16
1.016142915e-15
1.17035443e-15
1.146430648e-15
1.205194014e-15
1.034563293e-15
3.60544139e-16
9.840393738e-16
1.035123087e-15
1.108954503e-15
1.19046128e-15
1.094317576e-15
1.147113829e-15
1.208425977e-15
1.14692859e-15
1.203781006e-15
9.661298108e-16
1.205193716e-15
1.09852278e-15
1.210641174e-15
8.304688819e-16
1.147566834e-15
1.092132936e-15
1.126612365e-15
1.138081158e-15
1.096504215e-15
1.106116924e-15
1.165280239e-15
1.228200569e-15
1.229502697e-15
1.214088172e-15
1.241191725e-15
1.263520895e-15
1.229032529e-15
1.183055433e-15
8.899619898e-16
1.963865242e-16
1.963865242e-16
4.16200019e-16
1.963865242e-16
3.318443774e-16
1.033491936e-15
3.397714357e-16
1.196179368e-15
7.906855559e-16
1.127453124e-15
1.136514324e-15
1.09871027e-15
1.107223704e-15
4.471926751e-16
1.226919705e-15
1.148737558e-15
1.065151928e-15
1.236730425e-15
1.290364921e-15
1.180098218e-15
1.174731446e-15
1.0890639e-15
1.153424702e-15
1.236016101e-15
1.260323272e-15
1.099570995e-15
1.282778623e-15
1.174127868e-15
1.100715482e-15
1.058194456e-15
1.083674598e-15
1.226496278e-15
1.23565256e-15
1.148828524e-15
1.213857404e-15
1.188319041e-15
1.155020657e-15
1.216855735e-15
1.039164183e-15
1.09075986e-15
1.178042064e-15
1.036457219e-15
1.963865242e-16
1.963865242e-16
2.503761154e-16
3.184657393e-16
3.47919735e-16
1.075096179e-15
1.029101551e-15
4.698949372e-16
1.075020527e-15
1.196493518e-15
1.167820269e-15
1.201534371e-15
1.056716205e-15
1.185149015e-15
1.165336454e-15
1.198957445e-15
1.244227526e-15
1.162013777e-15
1.20955634e-15
1.172370843e-15
9.970106982e-16
1.177578057e-15
1.134381181e-15
1.233846519e-15
1.175075117e-15
1.26141712e-15
1.242095295e-15
1.074476643e-15
1.198718405e-15
1.301465622e-15
1.316615278e-15
1.250634077e-15
1.222975082e-15
1.171680031e-15
1.134307062e-15
1.205222141e-15
1.129534858e-15
1.174675914e-15
1.178167647e-15
1.182343163e-15
1.247183954e-15
4.457126885e-16
3.043372063e-16
1.963865242e-16
3.3843377e-16
2.054393879e-16
9.675937286e-16
3.419854259e-16
5.9544911e-16
3.365925918e-16
1.201047586e-15
5.505068761e-16
1.023528301e-15
1.222792591e-15
1.174921605e-15
1.156194294e-15
1.093719532e-15
1.205044617e-15
1.171179938e-15
1.078251047e-15
1.201922266e-15
1.249995303e-15
1.224636982e-15
1.178486387e-15
1.169002505e-15
1.299905272e-15
1.135058119e-15
1.138657419e-15
1.234696507e-15
1.141946327e-15
1.20267542e-15
1.067125306e-15
1.217242454e-15
1.236448112e-15
1.177101861e-15
1.298627446e-15
1.208587542e-15
1.194497878e-15
1.20568809e-15
1.246439384e-15
1.183964282e-15
1.143842139e-15
9.568384909e-16
4.681028987e-16
1.963865242e-16
4.047702467e-16
3.50135826e-16
2.869604136e-16
1.198946233e-15
4.119594435e-16
4.782080834e-16
5.04514437e-16
3.962891934e-16
1.021022787e-15
1.180474132e-15
1.070957832e-15
1.247792839e-15
1.193440208e-15
9.902040895e-16
1.224056911e-15
1.087968914e-15
1.251801124e-15
1.052953051e-15
1.204907609e-15
1.141769476e-15
1.230111895e-15
1.27522384e-15
1.214286621e-15
1.172325943e-15
1.168742335e-15
1.271431357e-15
1.227045563e-15
1.277824087e-15
1.202406753e-15
1.334397906e-15
1.253908957e-15
1.209894681e-15
1.121935156e-15
1.061798067e-15
1.165565296e-15
1.171236808e-15
1.304353259e-15
1.099038236e-15
1.074961512e-15
1.209889553e-15
3.441062049e-16
1.963865242e-16
3.51751006e-16
4.138810356e-16
2.33887941e-16
1.197990634e-15
9.844828514e-16
3.724620282e-16
4.059169589e-16
1.154681275e-15
1.145198883e-15
1.163496521e-15
4.043375741e-16
1.128809892e-15
1.147378476e-15
9.363910004e-16
1.081642347e-15
1.238531546e-15
1.292041713e-15
1.232827355e-15
1.110178579e-15
1.297079238e-15
1.229522258e-15
1.214062095e-15
1.171115598e-15
1.250986607e-15
1.225058085e-15
1.21537347e-15
1.033707746e-15
1.175253141e-15
1.229041556e-15
1.276856136e-15
1.28760827e-15
1.252029723e-15
1.104095816e-15
1.226362942e-15
1.099596318e-15
1.219829615e-15
1.237733713e-15
1.180461478e-15
1.128799054e-15
1.128358189e-15
1.046699675e-15
2.592384697e-16
3.410605605e-16
3.206909221e-16
4.016130625e-16
3.916533084e-16
4.303560888e-16
4.105261913e-16
4.105261913e-16
8.091357878e-16
1.226126222e-15
1.117095672e-15
1.135872014e-15
1.223467108e-15
1.037872903e-15
1.175416169e-15
1.103431696e-15
1.23525604e-15
9.879556549e-16
1.252238506e-15
1.151242695e-15
1.145751468e-15
1.175325298e-15
1.152681113e-15
1.185252525e-15
1.264387353e-15
1.222381772e-15
1.172912229e-15
7.481287844e-16
7.976871693e-16
1.214344563e-15
1.25850996e-15
1.185726655e-15
1.132724484e-15
1.178089186e-15
1.180902456e-15
1.141111706e-15
1.158132e-15
1.21638112e-15
1.216939751e-15
1.237374306e-15
1.187171351e-15
1.054364169e-15
1.963865242e-16
1.963865242e-16
1.963865242e-16
3.703865791e-16
3.424739259e-16
4.596792756e-16
4.441610705e-16
9.354572817e-16
3.89774598e-16
1.151977598e-15
1.222842273e-15
1.278098117e-15
1.161214755e-15
1.050515423e-15
1.190462829e-15
1.198575112e-15
1.234237637e-15
1.248461794e-15
1.00461068e-15
1.204309523e-15
1.072553281e-15
1.158883146e-15
1.210392795e-15
1.199463941e-15
1.170215258e-15
1.222249675e-15
1.125410502e-15
1.193567611e-15
1.175567687e-15
1.031721027e-15
1.238761262e-15
1.261084591e-15
1.214712304e-15
1.288692159e-15
1.194158975e-15
1.228591762e-15
1.195471359e-15
1.241905652e-15
1.170297106e-15
1.216506996e-15
1.197405749e-15
5.867156156e-16
1.963865242e-16
1.963865242e-16
2.745653062e-16
4.222193445e-16
2.165004233e-16
6.085355327e-16
3.620613168e-16
3.745387447e-16
4.222193445e-16
1.132214581e-15
4.461456018e-16
4.26319959e-16
1.215738097e-15
1.094635127e-15
1.122624125e-15
1.281067841e-15
1.211309712e-15
1.30971492e-15
8.861544866e-16
1.146963805e-15
5.675710804e-16
7.405083958e-16
1.152920029e-15
1.289549972e-15
1.223246432e-15
1.191788552e-15
1.153260138e-15
1.204228456e-15
1.238697264e-15
1.195954819e-15
1.18456131e-15
1.032966325e-15
1.164049601e-15
1.170864058e-15
1.183886026e-15
1.003086088e-15
1.212386912e-15
1.245002796e-15
1.206140215e-15
1.175057644e-15
9.607420826e-16
4.828886041e-16
1.963865242e-16
1.963865242e-16
2.687239187e-16
2.811224863e-16
3.801507767e-16
3.845194467e-16
3.832203607e-16
3.885959829e-16
1.183172309e-15
4.531705521e-16
1.037430772e-15
1.23858903e-15
1.133341279e-15
1.173367068e-15
1.202797248e-15
1.2124256e-15
1.223199937e-15
1.188088527e-15
1.173363066e-15
1.190730895e-15
1.183593334e-15
1.049796027e-15
1.094991065e-15
1.21416125e-15
1.258598863e-15
1.191723498e-15
1.224556543e-15
1.267931905e-15
1.108798553e-15
1.184492918e-15
1.275536698e-15
1.137416078e-15
1.093272103e-15
1.255411582e-15
1.255279985e-15
1.196009991e-15
1.264856376e-15
1.119114767e-15
1.158584412e-15
1.082219732e-15
1.231818552e-15
1.054199701e-15
1.963865242e-16
1.963865242e-16
3.520547712e-16
3.721902712e-16
4.708704832e-16
1.180646105e-15
1.064725023e-15
4.221334875e-16
4.865125029e-16
1.200434439e-15
1.148926066e-15
1.136867686e-15
1.084533336e-15
1.194665399e-15
1.244774557e-15
9.922344505e-16
1.161946908e-15
1.177399487e-15
1.249317263e-15
1.066695939e-15
1.254238427e-15
1.212454098e-15
1.166079826e-15
9.742805693e-16
1.16994627e-15
1.104453903e-15
1.179334474e-15
1.115523837e-15
1.227479058e-15
1.155304872e-15
1.16865542e-15
1.205219215e-15
1.096987669e-15
1.2145436e-15
1.094139609e-15
1.242537528e-15
1.220228235e-15
1.310753445e-15
1.134376164e-15
1.201265462e-15
1.140122738e-15
9.752045407e-16
1.963865242e-16
1.963865242e-16
4.840541391e-16
3.369501555e-16
1.220626417e-15
1.227722926e-15
1.025711812e-15
1.092620616e-15
1.203845142e-15
4.221397987e-16
4.15796196e-16
1.264153074e-15
1.23032202e-15
1.0973302e-15
1.169544194e-15
1.060936453e-15
1.227890349e-15
1.174580876e-15
1.154059018e-15
1.192720653e-15
1.166782887e-15
1.209096068e-15
1.285051095e-15
1.275482839e-15
1.105183605e-15
1.234174377e-15
1.230181667e-15
6.453766648e-16
1.159967667e-15
1.242661629e-15
1.084556952e-15
1.204547901e-15
1.13047242e-15
1.230149248e-15
1.158807721e-15
1.190400834e-15
1.180211612e-15
1.069218465e-15
1.139523208e-15
1.213704117e-15
1.16510754e-15
1.055059152e-15
2.064582754e-16
3.031070027e-16
2.266175182e-16
3.51363256e-16
3.909393411e-16
2.925913551e-16
3.432471455e-16
1.017260436e-15
1.162100837e-15
9.167139144e-16
3.369498748e-16
1.18594769e-15
1.253223357e-15
1.158303671e-15
1.251333125e-15
1.252530801e-15
1.064605486e-15
1.210345953e-15
1.191509099e-15
1.076500885e-15
1.19787434e-15
9.996005206e-16
1.172925064e-15
1.198928466e-15
1.18610076e-15
8.733979407e-16
1.258763921e-15
1.203192604e-15
1.21573813e-15
1.248611113e-15
1.204339397e-15
1.213586198e-15
9.584294037e-16
1.195823141e-15
1.264872467e-15
1.226302839e-15
1.218726696e-15
1.173682049e-15
1.143612545e-15
7.658054883e-16
1.244106241e-15
6.76797163e-16
1.963865242e-16
3.582354449e-16
3.794882254e-16
2.966572006e-16
3.957265481e-16
1.168015553e-15
5.0335088e-16
1.141827297e-15
1.158042803e-15
1.261747291e-15
4.195794616e-16
7.189852556e-16
4.746290022e-16
1.170102079e-15
1.271605827e-15
1.219481262e-15
1.131457372e-15
1.243376397e-15
1.247121107e-15
1.070490002e-15
1.231954913e-15
1.167250251e-15
1.201320292e-15
1.046606256e-15
1.146052843e-15
1.162362283e-15
1.087104681e-15
4.372098381e-16
1.225903474e-15
1.242956806e-15
1.338641898e-15
1.221183461e-15
1.213574211e-15
1.174480618e-15
1.179844057e-15
1.295725273e-15
1.215610689e-15
1.064705844e-15
1.146309441e-15
9.816813271e-16
1.262046176e-15
1.08421615e-15
1.963865242e-16
4.770662016e-16
4.566326707e-16
4.065802721e-16
3.444605613e-16
4.10819745e-16
8.621861777e-16
1.059299807e-15
1.200744792e-15
5.934348946e-16
6.823109362e-16
4.264536917e-16
1.174028139e-15
4.658047335e-16
1.220916088e-15
1.080213875e-15
1.13749045e-15
1.223476952e-15
1.219194403e-15
1.160582847e-15
1.187007206e-15
1.18274581e-15
1.222753791e-15
1.31863108e-15
1.210472081e-15
7.924562603e-16
1.136308174e-15
1.26666594e-15
1.287364272e-15
1.230861187e-15
1.266206627e-15
1.257692729e-15
1.22131128e-15
1.143234199e-15
1.25902473e-15
1.205227025e-15
1.132885679e-15
1.272860865e-15
1.195558699e-15
1.225252416e-15
1.115620885e-15
8.724823081e-16
2.7627977e-16
4.277736245e-16
4.184331316e-16
4.184331316e-16
4.184331316e-16
3.626425938e-16
4.516669582e-16
9.850373167e-16
3.232711405e-16
1.114085219e-15
1.088087752e-15
3.785030197e-16
1.235226741e-15
1.292117352e-15
1.198316412e-15
1.229003049e-15
1.222546029e-15
1.302268179e-15
1.183129861e-15
1.300908515e-15
1.156045916e-15
1.260316684e-15
1.22948261e-15
1.188178964e-15
1.176584363e-15
1.1521099e-15
1.130494374e-15
1.17302613e-15
1.209743684e-15
1.129301342e-15
1.214863002e-15
1.197493649e-15
1.31004028e-15
1.243957887e-15
1.170860101e-15
1.120204495e-15
1.067121314e-15
1.157450665e-15
1.075433136e-15
1.241651552e-15
1.204701762e-15
1.055238195e-15
1.963865242e-16
2.612536026e-16
1.963865242e-16
2.79802362e-16
3.955477075e-16
3.47656756e-16
8.756458885e-16
1.26186823e-15
1.15360631e-15
3.637629266e-16
1.183591085e-15
1.115016536e-15
4.521657985e-16
1.199235867e-15
1.228207861e-15
1.237524527e-15
1.232092241e-15
1.163476109e-15
1.149421194e-15
1.167022135e-15
1.249725697e-15
1.217508603e-15
1.206597705e-15
1.294060439e-15
1.107752121e-15
1.238982374e-15
1.214711745e-15
1.196626321e-15
1.173230101e-15
1.259382178e-15
1.234156479e-15
1.200029318e-15
1.126675989e-15
1.159465785e-15
1.263659768e-15
1.095923811e-15
1.261363057e-15
1.304583652e-15
1.22908133e-15
1.274676715e-15
1.180901901e-15
9.148956011e-16
1.963865242e-16
2.46820003e-16
3.760023041e-16
4.354523848e-16
4.157521436e-16
1.223956906e-15
1.100546612e-15
1.09136813e-15
7.501759253e-16
1.157793231e-15
1.238963197e-15
1.107008044e-15
1.145147892e-15
1.094958719e-15
1.186628285e-15
1.136710518e-15
4.3600348e-16
1.180815233e-15
7.164543747e-16
4.308651941e-16
4.430480727e-16
1.182737203e-15
1.157568297e-15
1.218815634e-15
1.160420731e-15
1.258671932e-15
1.222752389e-15
1.205568333e-15
1.254969131e-15
1.242400728e-15
8.345894336e-16
1.133248628e-15
1.191648816e-15
1.162450729e-15
1.228055118e-15
1.107331364e-15
1.169284605e-15
1.059829108e-15
1.213396815e-15
1.105712036e-15
1.199159489e-15
1.096342551e-15
1.963865242e-16
3.531438453e-16
1.963865242e-16
3.642614568e-16
3.264212658e-16
8.676252595e-16
9.862922377e-16
3.717815543e-16
1.022098419e-15
1.165912946e-15
1.026941668e-15
1.168574935e-15
1.187476645e-15
1.164196905e-15
1.065439849e-15
1.149516592e-15
1.012300418e-15
1.116229124e-15
1.210327566e-15
1.234642262e-15
1.16365072e-15
1.264498438e-15
1.204277369e-15
1.268359287e-15
1.231490974e-15
1.123899834e-15
1.259995725e-15
1.311513223e-15
1.202791206e-15
1.01426004e-15
1.237527277e-15
1.196715202e-15
5.025592495e-16
1.207947081e-15
1.291848041e-15
1.159047107e-15
1.067869991e-15
1.166103159e-15
1.213742262e-15
1.158364864e-15
1.210456854e-15
1.031923865e-15
1.963865242e-16
3.133538887e-16
2.530611568e-16
3.188818221e-16
1.173408648e-15
9.748807192e-16
1.139344302e-15
1.237259204e-15
1.248505251e-15
1.086417885e-15
3.536656862e-16
1.136017508e-15
1.07853937e-15
1.227916458e-15
1.120714723e-15
1.241141508e-15
1.023320377e-15
1.09957853e-15
1.311671371e-15
1.164262891e-15
8.084996751e-16
1.325099147e-15
1.281566595e-15
1.219458871e-15
1.193163247e-15
1.275241225e-15
1.279081599e-15
1.128531065e-15
9.791675954e-16
1.162506586e-15
1.185194316e-15
1.180826133e-15
1.179047929e-15
1.195846072e-15
1.200789389e-15
1.216990732e-15
1.205201307e-15
1.329780786e-15
1.145392293e-15
1.111693121e-15
1.174588893e-15
9.936903034e-16
1.963865242e-16
2.771265426e-16
2.707195641e-16
3.08639427e-16
7.074334098e-16
3.453021647e-16
4.053629165e-16
1.164042215e-15
1.193336415e-15
9.95423142e-16
1.19678585e-15
1.028297595e-15
1.215938434e-15
1.104257983e-15
1.143823797e-15
1.044191762e-15
1.181960675e-15
1.230310309e-15
1.160484609e-15
1.181554046e-15
1.075498976e-15
1.169166719e-15
1.108437543e-15
1.230049775e-15
1.036693887e-15
1.255927245e-15
9.762430427e-16
1.250657701e-15
1.259913567e-15
1.194183918e-15
1.154229095e-15
1.187050029e-15
1.230702336e-15
1.205733453e-15
1.042755199e-15
1.254451742e-15
1.158735802e-15
9.921598738e-16
1.142695758e-15
1.130388676e-15
1.243013282e-15
8.227076879e-16
1.963865242e-16
5.32557713e-16
3.812416412e-16
4.393530915e-16
3.799865037e-16
4.080963701e-16
4.309359739e-16
4.758451779e-16
1.131237825e-15
1.20536944e-15
7.284777304e-16
1.11749521e-15
1.21484474e-15
1.068390681e-15
1.225446405e-15
1.14931543e-15
1.107088341e-15
1.241669893e-15
1.195448568e-15
1.185790252e-15
1.141767622e-15
1.10025053e-15
1.219269943e-15
1.281312102e-15
1.115812861e-15
1.166041175e-15
1.207669483e-15
1.206899101e-15
9.443445171e-16
1.172984956e-15
1.154282552e-15
1.173541277e-15
1.012226042e-15
1.211863739e-15
1.15531809e-15
1.194744262e-15
1.099070804e-15
3.869504648e-16
1.283658132e-15
8.108093087e-16
1.216136743e-15
7.994747116e-16
3.47374679e-16
4.472249763e-16
2.395604529e-16
3.139435088e-16
1.22772048e-15
6.809122708e-16
4.8539235e-16
3.432635566e-16
4.26468027e-16
1.161863537e-15
9.731137043e-16
1.245128953e-15
1.06204792e-15
1.058278907e-15
1.045473669e-15
1.111799526e-15
1.048103324e-15
1.230915385e-15
1.217216581e-15
1.042543631e-15
1.051402064e-15
1.020180163e-15
1.252146791e-15
1.228258297e-15
1.046866455e-15
1.196498511e-15
1.118181357e-15
9.770418485e-16
1.105003501e-15
1.148459453e-15
1.219546615e-15
1.210143517e-15
1.188675174e-15
1.228326595e-15
1.12868845e-15
1.247565674e-15
1.033835052e-15
1.077749007e-15
1.048867386e-15
1.176990894e-15
1.195121075e-15
3.772999287e-16
1.963865242e-16
2.202726681e-16
4.047679732e-16
3.26625209e-16
2.412663753e-16
1.311602969e-15
1.105899869e-15
3.599767404e-16
1.210258759e-15
5.90802939e-16
1.148591449e-15
1.138451024e-15
1.10950022e-15
1.095002312e-15
1.242184638e-15
9.411305209e-16
1.257010918e-15
1.155099466e-15
1.069686783e-15
1.200789318e-15
1.137110041e-15
1.051415319e-15
4.673839055e-16
1.142553174e-15
1.162275468e-15
1.167338791e-15
1.25176036e-15
1.174694692e-15
1.224068187e-15
1.235157456e-15
1.232675726e-15
1.147400821e-15
1.190128918e-15
1.164204481e-15
1.288710379e-15
1.228787076e-15
1.095365319e-15
9.672428021e-16
1.27715304e-15
1.149927089e-15
1.0604969e-15
3.829776953e-16
1.963865242e-16
1.963865242e-16
3.154395155e-16
3.302152259e-16
3.037291988e-16
3.45641052e-16
4.845929637e-16
3.407467676e-16
3.886251759e-16
7.956985881e-16
3.980870607e-16
3.762747269e-16
9.351058724e-16
3.568991996e-16
3.973145606e-16
9.977985509e-16
4.211586325e-16
6.854302514e-16
5.257140782e-16
1.153294042e-15
1.16593441e-15
1.177672759e-15
9.059615278e-16
1.136033838e-15
9.108564187e-16
1.025798978e-15
1.094219704e-15
1.173186324e-15
1.215911883e-15
9.790489271e-16
1.020444647e-15
1.028711406e-15
1.078820176e-15
8.584314886e-16
1.134998722e-15
1.121920178e-15
9.666049157e-16
9.685415877e-16
1.1268789e-15
1.099257439e-15
7.179107895e-16
6.951020461e-16
1.963865242e-16
1.963865242e-16
2.939845014e-16
3.569938347e-16
5.184294904e-16
4.434727541e-16
3.822844833e-16
5.466717184e-16
4.184467583e-16
4.40317322e-16
4.826430689e-16
4.203680372e-16
4.218404186e-16
1.008642291e-15
9.61814733e-16
4.512777842e-16
7.833830031e-16
5.779893949e-16
9.417138211e-16
9.898510047e-16
9.753760692e-16
1.094828636e-15
1.046631268e-15
9.788462856e-16
7.311122673e-16
1.051139167e-15
1.155643194e-15
9.710841351e-16
7.687504194e-16
4.366253923e-16
8.595037356e-16
9.826485957e-16
9.760513695e-16
5.908848311e-16
9.236602016e-16
1.158738499e-15
9.14744725e-16
1.148643439e-15
1.119394118e-15
9.165422234e-16
8.553330079e-16
9.719266862e-16
3.421653053e-16
3.039029013e-16
4.048386162e-16
3.682317156e-16
1.162098196e-15
5.074766239e-16
1.087223671e-15
9.765010402e-16
4.99576234e-16
1.156586748e-15
1.198052448e-15
1.205591027e-15
1.197945412e-15
1.11398575e-15
1.247419996e-15
1.126873122e-15
1.242954469e-15
9.614203877e-16
1.206101927e-15
1.17417309e-15
1.181181848e-15
1.224198204e-15
1.186466039e-15
1.127282908e-15
1.191778992e-15
1.145022163e-15
1.292037324e-15
1.128778406e-15