/*--------------------------------*- C++ -*----------------------------------*\
| =========                 |                                                 |
| \\      /  F ield         | OpenFOAM: The Open Source CFD Toolbox           |
|  \\    /   O peration     | Version:  v1706                                 |
|   \\  /    A nd           | Web:      www.OpenFOAM.com                      |
|    \\/     M anipulation  |                                                 |
\*---------------------------------------------------------------------------*/
FoamFile
{
    version     2.0;
    format      ascii;
    class       volScalarField;
    location    "3.996";
    object      dsmcNMean_O2;
}
// * * * * * * * * * * * * * * * * * * * * * * * * * * * * * * * * * * * * * //

dimensions      [0 0 0 0 0 0 0];


internalField   nonuniform List<scalar> 
50792
(
0.0001471962617
0.001067757009
0.001990654206
0.0005537383178
0.0006355140187
0.0008457943925
0.0006238317757
0.001207943925
0.001287383178
0.001058411215
0.001803738318
0.001485981308
0.002170560748
0.001845794393
0.001523364486
0.002612149533
0.001978971963
0.002151869159
0.001836448598
0.002042056075
0.002135514019
0.002081775701
0.002299065421
0.002294392523
0.002280373832
0.002196261682
0.004352803738
0.003102803738
0.002714953271
0.002925233645
0.003285046729
0.002404205607
0.002228971963
0.002221962617
0.003378504673
0.002453271028
0.002446261682
0.002551401869
0.002429906542
0.002420560748
0.002647196262
0.002647196262
0.0008785046729
0.0002219626168
0.0002640186916
0.0003434579439
0.0004392523364
0.0005957943925
0.001114485981
0.001813084112
0.00108411215
0.001780373832
0.001448598131
0.001927570093
0.001869158879
0.001560747664
0.001619158879
0.001990654206
0.001514018692
0.002042056075
0.001948598131
0.002422897196
0.002556074766
0.002969626168
0.002918224299
0.002093457944
0.001932242991
0.001436915888
0.001876168224
0.001855140187
0.001869158879
0.002609813084
0.002123831776
0.003102803738
0.00233411215
0.001892523364
0.002338785047
0.002397196262
0.002189252336
0.003369158879
0.002934579439
0.002310747664
0.002063084112
0.002009345794
2.102803738e-05
0.0001144859813
0.0002593457944
0.0002803738318
0.0003528037383
0.0004275700935
0.001913551402
0.00075
0.0007663551402
0.001455607477
0.0008948598131
0.001018691589
0.001306074766
0.001322429907
0.001581775701
0.00133411215
0.001502336449
0.002247663551
0.001831775701
0.001785046729
0.002151869159
0.002345794393
0.002030373832
0.002446261682
0.002070093458
0.002077102804
0.002392523364
0.00260046729
0.002413551402
0.002098130841
0.00239953271
0.00401635514
0.002530373832
0.002207943925
0.002904205607
0.002196261682
0.001985981308
0.001953271028
0.002411214953
0.002021028037
0.003042056075
0.002644859813
0.0001658878505
0.0001168224299
0.0002172897196
0.0003107476636
0.0003808411215
0.0005490654206
0.0006612149533
0.000691588785
0.001210280374
0.0009065420561
0.001450934579
0.001845794393
0.001053738318
0.001228971963
0.001355140187
0.001268691589
0.002642523364
0.001574766355
0.002161214953
0.003121495327
0.002787383178
0.002855140187
0.001768691589
0.002058411215
0.001738317757
0.001560747664
0.002093457944
0.002558411215
0.002235981308
0.002177570093
0.002869158879
0.002859813084
0.00301635514
0.001960280374
0.002063084112
0.001789719626
0.001913551402
0.001929906542
0.002827102804
0.002742990654
0.002322429907
0.001768691589
0.0003130841121
0.0001845794393
0.0006565420561
0.0008714953271
0.0008387850467
0.0007406542056
0.001441588785
0.0009485981308
0.001686915888
0.001058411215
0.001712616822
0.001221962617
0.001481308411
0.0015
0.001294392523
0.001563084112
0.002112149533
0.00138317757
0.001609813084
0.001913551402
0.001726635514
0.002579439252
0.002752336449
0.002481308411
0.002154205607
0.003252336449
0.002742990654
0.001815420561
0.00236682243
0.003179906542
0.002822429907
0.002873831776
0.002936915888
0.002014018692
0.002478971963
0.001703271028
0.00208411215
0.002170560748
0.002591121495
0.002278037383
0.002418224299
0.002257009346
8.878504673e-05
0.0001705607477
0.0002827102804
0.0003411214953
0.0008621495327
0.0005373831776
0.0007196261682
0.001434579439
0.001464953271
0.001063084112
0.00108411215
0.001432242991
0.0009813084112
0.001306074766
0.001331775701
0.001558411215
0.00123364486
0.001245327103
0.001453271028
0.001957943925
0.001668224299
0.003086448598
0.002142523364
0.002675233645
0.001682242991
0.001845794393
0.002072429907
0.002764018692
0.002934579439
0.002214953271
0.002175233645
0.002455607477
0.003060747664
0.002528037383
0.002411214953
0.00198364486
0.00173364486
0.002088785047
0.002
0.002577102804
0.002934579439
0.001724299065
0.0005700934579
5.373831776e-05
5.841121495e-05
0.0001985981308
0.0002757009346
0.0005023364486
0.0008224299065
0.0004462616822
0.0008785046729
0.0009439252336
0.00103271028
0.00108411215
0.001481308411
0.001046728972
0.00114953271
0.001200934579
0.001775700935
0.001974299065
0.002313084112
0.002670560748
0.002869158879
0.001901869159
0.001939252336
0.001887850467
0.002296728972
0.002364485981
0.003130841121
0.002911214953
0.002492990654
0.002063084112
0.002072429907
0.001490654206
0.002112149533
0.001577102804
0.001721962617
0.001794392523
0.002481308411
0.002420560748
0.002359813084
0.002761682243
0.003158878505
0.00246728972
4.439252336e-05
0.0001448598131
0.0003598130841
0.0005514018692
0.0006799065421
0.001042056075
0.0009929906542
0.001221962617
0.001093457944
0.001563084112
0.001478971963
0.001331775701
0.00153271028
0.001647196262
0.002025700935
0.00225
0.002077102804
0.002014018692
0.002411214953
0.00236682243
0.002700934579
0.00291588785
0.002609813084
0.002441588785
0.002385514019
0.003810747664
0.00289953271
0.002392523364
0.001918224299
0.00246728972
0.002677570093
0.00248364486
0.002109813084
0.002642523364
0.00214953271
0.001878504673
0.00221728972
0.002119158879
0.002570093458
0.001985981308
0.002434579439
0.002602803738
7.242990654e-05
0.0002663551402
0.0005514018692
0.0003901869159
0.0004813084112
0.0005046728972
0.0007079439252
0.00139953271
0.001074766355
0.001492990654
0.001273364486
0.001553738318
0.001455607477
0.001570093458
0.001995327103
0.001677570093
0.001742990654
0.00176635514
0.002044392523
0.002369158879
0.001922897196
0.00321728972
0.002212616822
0.002780373832
0.002102803738
0.001801401869
0.002004672897
0.002264018692
0.002504672897
0.003355140187
0.005890186916
0.003630841121
0.003207943925
0.002677570093
0.002577102804
0.003275700935
0.002754672897
0.00353271028
0.002728971963
0.002007009346
0.003184579439
0.001948598131
0.0001682242991
0.0001588785047
0.000546728972
0.0003317757009
0.0005443925234
0.0008574766355
0.001184579439
0.0009065420561
0.0009205607477
0.001292056075
0.001317757009
0.001577102804
0.001378504673
0.001296728972
0.001742990654
0.001079439252
0.001343457944
0.001126168224
0.001535046729
0.00166588785
0.002102803738
0.00214953271
0.001549065421
0.002238317757
0.001675233645
0.001679906542
0.00203271028
0.002
0.002560747664
0.004086448598
0.00163317757
0.001936915888
0.001331775701
0.003091121495
0.001740654206
0.001757009346
0.001654205607
0.002123831776
0.002352803738
0.002163551402
0.002588785047
0.001887850467
0.000203271028
5.373831776e-05
0.0003504672897
0.0001168224299
0.0002686915888
0.0004322429907
0.0006144859813
0.0009392523364
0.001803738318
0.001198598131
0.001373831776
0.001049065421
0.001817757009
0.001518691589
0.002546728972
0.001642523364
0.002098130841
0.001647196262
0.00163317757
0.001586448598
0.001488317757
0.002371495327
0.002369158879
0.002070093458
0.001509345794
0.001768691589
0.001808411215
0.002077102804
0.002469626168
0.002481308411
0.00198364486
0.001964953271
0.002042056075
0.002004672897
0.002663551402
0.001869158879
0.001577102804
0.002154205607
0.00263317757
0.001771028037
0.001920560748
0.001436915888
0.0001401869159
0.0005630841121
0.0004205607477
0.0004369158879
0.0005981308411
0.0006799065421
0.0009485981308
0.001007009346
0.00111682243
0.001271028037
0.001579439252
0.002168224299
0.001992990654
0.002855140187
0.00198364486
0.001577102804
0.001792056075
0.002292056075
0.002478971963
0.002518691589
0.002698598131
0.002168224299
0.002252336449
0.00258411215
0.002343457944
0.002878504673
0.002560747664
0.003308411215
0.002408878505
0.003009345794
0.002831775701
0.002822429907
0.00303271028
0.00258411215
0.002378504673
0.002521028037
0.002836448598
0.002836448598
0.002488317757
0.002848130841
0.002471962617
0.002261682243
0.001158878505
0.0004859813084
0.0003761682243
0.0005070093458
0.0006261682243
0.0008434579439
0.002025700935
0.000988317757
0.001095794393
0.001481308411
0.001212616822
0.001203271028
0.001394859813
0.00135046729
0.001871495327
0.00146728972
0.001712616822
0.002014018692
0.003037383178
0.003392523364
0.002894859813
0.00296728972
0.003453271028
0.002525700935
0.002474299065
0.002408878505
0.003161214953
0.00289953271
0.002642523364
0.003112149533
0.003336448598
0.003401869159
0.004172897196
0.003922897196
0.003792056075
0.003682242991
0.003511682243
0.003014018692
0.002408878505
0.002897196262
0.002135514019
0.002235981308
0.001780373832
0.001278037383
0.000511682243
0.0006775700935
0.000785046729
0.0008411214953
0.00146728972
0.001943925234
0.002252336449
0.0009252336449
0.001376168224
0.001661214953
0.001046728972
0.001495327103
0.00138317757
0.00214953271
0.001525700935
0.001964953271
0.002785046729
0.002193925234
0.001890186916
0.002245327103
0.003642523364
0.002523364486
0.001892523364
0.002955607477
0.002913551402
0.002689252336
0.003612149533
0.002978971963
0.00313317757
0.003642523364
0.003922897196
0.002397196262
0.003107476636
0.003824766355
0.003981308411
0.004226635514
0.004009345794
0.003203271028
0.002647196262
0.001878504673
0.002299065421
0.0003808411215
0.0006028037383
0.0006214953271
0.0007476635514
0.0009626168224
0.001315420561
0.002095794393
0.001007009346
0.001135514019
0.001196261682
0.001137850467
0.001140186916
0.001721962617
0.001341121495
0.001502336449
0.001341121495
0.001654205607
0.001985981308
0.001700934579
0.001436915888
0.002140186916
0.002691588785
0.003308411215
0.002696261682
0.003191588785
0.002362149533
0.002490654206
0.002675233645
0.002385514019
0.002186915888
0.002602803738
0.004119158879
0.003579439252
0.004123831776
0.002684579439
0.00278271028
0.002822429907
0.002862149533
0.002927570093
0.002364485981
0.001934579439
0.0003901869159
0.000203271028
0.0003037383178
0.0003294392523
0.0005023364486
0.0007429906542
0.0007546728972
0.0008785046729
0.001028037383
0.001296728972
0.001301401869
0.00141588785
0.001287383178
0.00185046729
0.001845794393
0.002394859813
0.001563084112
0.002219626168
0.002011682243
0.003179906542
0.002210280374
0.002876168224
0.00248364486
0.003331775701
0.002264018692
0.002088785047
0.002481308411
0.002492990654
0.00236682243
0.002544392523
0.001738317757
0.001801401869
0.002207943925
0.002703271028
0.001855140187
0.002252336449
0.002579439252
0.001799065421
0.002693925234
0.002509345794
0.002441588785
0.002191588785
0.0003107476636
0.0001214953271
0.0002056074766
0.0003855140187
0.0005794392523
0.000785046729
0.00114953271
0.001221962617
0.001476635514
0.002154205607
0.001441588785
0.001469626168
0.001556074766
0.00191588785
0.002920560748
0.002205607477
0.002429906542
0.00223364486
0.002922897196
0.002380841121
0.001838785047
0.002292056075
0.002264018692
0.003009345794
0.003074766355
0.002373831776
0.003163551402
0.003065420561
0.003376168224
0.002670560748
0.002521028037
0.002742990654
0.002960280374
0.00289953271
0.002254672897
0.002901869159
0.00246728972
0.002637850467
0.003058411215
0.003593457944
0.003
0.002086448598
0.0007663551402
0.0001635514019
0.0003901869159
0.0005794392523
0.0006518691589
0.001011682243
0.000761682243
0.0008901869159
0.001427570093
0.001095794393
0.001336448598
0.001471962617
0.001614485981
0.001443925234
0.001294392523
0.00235046729
0.00191588785
0.002525700935
0.002301401869
0.001780373832
0.001581775701
0.002058411215
0.002018691589
0.002306074766
0.003002336449
0.002226635514
0.003044392523
0.001906542056
0.002824766355
0.001974299065
0.002327102804
0.002401869159
0.001619158879
0.001658878505
0.002046728972
0.00276635514
0.003156542056
0.001647196262
0.001696261682
0.003577102804
0.002355140187
0.001740654206
0.0004228971963
0.0002780373832
0.0003130841121
0.0005490654206
0.000476635514
0.0008200934579
0.001504672897
0.0009182242991
0.0009392523364
0.001235981308
0.001670560748
0.001724299065
0.002745327103
0.002504672897
0.001728971963
0.001862149533
0.002663551402
0.003186915888
0.002801401869
0.002301401869
0.002427570093
0.002299065421
0.003051401869
0.003635514019
0.002857476636
0.001901869159
0.002565420561
0.002411214953
0.002642523364
0.002885514019
0.003135514019
0.003170560748
0.002329439252
0.002067757009
0.002098130841
0.002126168224
0.002235981308
0.001997663551
0.001759345794
0.002376168224
0.002098130841
0.001644859813
4.439252336e-05
0.0001869158879
0.0003808411215
0.0008621495327
0.0008294392523
0.001271028037
0.001450934579
0.001219626168
0.001348130841
0.002135514019
0.001691588785
0.001478971963
0.001623831776
0.001871495327
0.00188317757
0.00213317757
0.002009345794
0.002338785047
0.002193925234
0.003156542056
0.002264018692
0.001981308411
0.002775700935
0.003105140187
0.001843457944
0.001502336449
0.001672897196
0.00271728972
0.002074766355
0.002123831776
0.002565420561
0.001880841121
0.00239953271
0.002014018692
0.001950934579
0.001976635514
0.002175233645
0.0025
0.002322429907
0.002049065421
0.00211682243
0.002065420561
0.0008598130841
0.0002803738318
0.0006658878505
0.0005163551402
0.001511682243
0.0009742990654
0.000953271028
0.001128504673
0.001345794393
0.001294392523
0.001457943925
0.001827102804
0.001728971963
0.001775700935
0.001792056075
0.002682242991
0.002191588785
0.002726635514
0.002876168224
0.00323364486
0.002572429907
0.002698598131
0.002894859813
0.00189953271
0.003091121495
0.002577102804
0.002570093458
0.00228271028
0.002971962617
0.002679906542
0.003011682243
0.002413551402
0.00216588785
0.001890186916
0.001932242991
0.002406542056
0.001726635514
0.002203271028
0.001712616822
0.001824766355
0.00261682243
0.002144859813
0.0002336448598
0.0001471962617
0.001273364486
0.0003481308411
0.0007453271028
0.001296728972
0.001119158879
0.000726635514
0.001028037383
0.001315420561
0.001369158879
0.001158878505
0.001226635514
0.001226635514
0.001509345794
0.001544392523
0.001841121495
0.002404205607
0.001787383178
0.002345794393
0.001387850467
0.001418224299
0.001988317757
0.003871495327
0.001679906542
0.002268691589
0.002175233645
0.002707943925
0.002679906542
0.002049065421
0.002705607477
0.003049065421
0.003721962617
0.004060747664
0.002796728972
0.003018691589
0.002175233645
0.001719626168
0.00183411215
0.001712616822
0.001768691589
0.001322429907
5.607476636e-05
2.570093458e-05
0.0001635514019
0.0002710280374
0.0009112149533
0.0007102803738
0.0007990654206
0.001420560748
0.00126635514
0.001261682243
0.002037383178
0.001401869159
0.001670560748
0.001644859813
0.001927570093
0.001446261682
0.001535046729
0.002060747664
0.001948598131
0.001418224299
0.001700934579
0.002719626168
0.003002336449
0.003142523364
0.002619158879
0.002306074766
0.001978971963
0.002460280374
0.00189953271
0.001845794393
0.002927570093
0.003815420561
0.00389953271
0.003481308411
0.003911214953
0.00238317757
0.002969626168
0.002436915888
0.002969626168
0.001682242991
0.002135514019
0.001939252336
0.001074766355
0.0003107476636
0.0006028037383
0.001023364486
0.0005911214953
0.0006191588785
0.0007757009346
0.0008738317757
0.00153271028
0.001109813084
0.001357476636
0.001775700935
0.001518691589
0.001852803738
0.002182242991
0.001278037383
0.001308411215
0.00283411215
0.001801401869
0.001981308411
0.001794392523
0.001757009346
0.001939252336
0.001637850467
0.002175233645
0.003056074766
0.002810747664
0.001836448598
0.001721962617
0.002037383178
0.001974299065
0.003025700935
0.003205607477
0.003507009346
0.002056074766
0.00175
0.002289719626
0.002728971963
0.002544392523
0.002219626168
0.002336448598
0.001462616822
0.00141588785
0.0004088785047
0.000523364486
0.0003668224299
0.0005771028037
0.0006495327103
0.0007453271028
0.001221962617
0.00141588785
0.001081775701
0.00121728972
0.001093457944
0.001642523364
0.002046728972
0.001836448598
0.001476635514
0.00236682243
0.002037383178
0.001880841121
0.001929906542
0.001892523364
0.002539719626
0.002261682243
0.001887850467
0.002299065421
0.00258411215
0.002820093458
0.002455607477
0.002754672897
0.001705607477
0.00296728972
0.002406542056
0.001630841121
0.002960280374
0.002320093458
0.002264018692
0.001689252336
0.001841121495
0.001997663551
0.002212616822
0.001981308411
0.00173364486
0.002130841121
0.0003785046729
0.0002570093458
0.0002780373832
0.0003247663551
0.0003948598131
0.001387850467
0.0007897196262
0.001210280374
0.0008294392523
0.000953271028
0.001336448598
0.001799065421
0.002436915888
0.002240654206
0.001950934579
0.003380841121
0.001836448598
0.001768691589
0.001728971963
0.002200934579
0.001721962617
0.002478971963
0.001871495327
0.001771028037
0.002488317757
0.002820093458
0.003058411215
0.002077102804
0.002182242991
0.002775700935
0.001731308411
0.001913551402
0.001927570093
0.003063084112
0.002873831776
0.001813084112
0.00196728972
0.001894859813
0.002336448598
0.002119158879
0.001792056075
0.0007570093458
0.000203271028
0.000273364486
0.0005023364486
0.0006799065421
0.0008060747664
0.0008738317757
0.0008481308411
0.001107476636
0.001259345794
0.001976635514
0.001619158879
0.001953271028
0.002151869159
0.002053738318
0.001838785047
0.001974299065
0.00189953271
0.001518691589
0.001745327103
0.001957943925
0.001588785047
0.001404205607
0.00136682243
0.001413551402
0.001862149533
0.002074766355
0.001724299065
0.001990654206
0.003170560748
0.003049065421
0.002904205607
0.003247663551
0.003065420561
0.002761682243
0.003035046729
0.002144859813
0.00310046729
0.00135046729
0.001738317757
0.001707943925
0.001885514019
0.0005420560748
6.308411215e-05
0.0002219626168
0.0005373831776
0.0007219626168
0.0009602803738
0.001030373832
0.00111682243
0.001310747664
0.001481308411
0.001735981308
0.002007009346
0.002320093458
0.00236682243
0.001911214953
0.001843457944
0.001855140187
0.001841121495
0.001971962617
0.001997663551
0.002406542056
0.002518691589
0.00291588785
0.002046728972
0.002661214953
0.00296728972
0.004128504673
0.003556074766
0.003509345794
0.003549065421
0.002560747664
0.002635514019
0.002067757009
0.003677570093
0.002271028037
0.003320093458
0.0025
0.002175233645
0.00248364486
0.002432242991
0.001869158879
0.001829439252
0.001771028037
0.0003738317757
0.0004509345794
0.0006214953271
0.0007313084112
0.0007570093458
0.0009182242991
0.001098130841
0.001329439252
0.001245327103
0.001228971963
0.001406542056
0.002397196262
0.001591121495
0.001528037383
0.002303738318
0.00185046729
0.00158411215
0.00223364486
0.002228971963
0.001843457944
0.001635514019
0.001607476636
0.002677570093
0.002432242991
0.002677570093
0.002943925234
0.002976635514
0.002686915888
0.002130841121
0.002074766355
0.003093457944
0.00198364486
0.001985981308
0.001761682243
0.002436915888
0.002670560748
0.002609813084
0.002936915888
0.004037383178
0.003030373832
0.002521028037
0.0009158878505
0.0009135514019
0.001170560748
0.0008317757009
0.0008901869159
0.001091121495
0.001679906542
0.00146728972
0.001308411215
0.001144859813
0.001035046729
0.001303738318
0.001808411215
0.00166588785
0.001939252336
0.001838785047
0.002544392523
0.001913551402
0.002348130841
0.001969626168
0.001621495327
0.002025700935
0.001873831776
0.002640186916
0.002864485981
0.003661214953
0.001936915888
0.001719626168
0.001714953271
0.001712616822
0.001990654206
0.001960280374
0.002481308411
0.002658878505
0.002306074766
0.001693925234
0.001978971963
0.002058411215
0.002028037383
0.002911214953
0.001292056075
0.00139953271
0.001163551402
0.0006168224299
0.0003271028037
0.0003971962617
0.0004789719626
0.0006448598131
0.00123364486
0.001448598131
0.001864485981
0.001336448598
0.001441588785
0.001661214953
0.001612149533
0.001728971963
0.001820093458
0.001878504673
0.002023364486
0.001495327103
0.001490654206
0.001621495327
0.001682242991
0.002271028037
0.002137850467
0.002273364486
0.003560747664
0.00321728972
0.003257009346
0.002275700935
0.002373831776
0.002322429907
0.003626168224
0.001817757009
0.001871495327
0.002831775701
0.00323364486
0.001988317757
0.00223364486
0.002413551402
0.004035046729
0.002995327103
0.002488317757
0.002081775701
0.001700934579
0.0009135514019
0.0003738317757
0.0003855140187
0.0004275700935
0.0006822429907
0.0006985981308
0.0008200934579
0.0006658878505
0.001025700935
0.001338785047
0.001422897196
0.0008224299065
0.001058411215
0.00188317757
0.002289719626
0.001114485981
0.001231308411
0.001448598131
0.001560747664
0.002060747664
0.001738317757
0.002602803738
0.002941588785
0.002102803738
0.002397196262
0.002175233645
0.00310046729
0.001679906542
0.002196261682
0.002259345794
0.002289719626
0.002315420561
0.002700934579
0.001703271028
0.001920560748
0.002228971963
0.002696261682
0.002275700935
0.002612149533
0.001810747664
0.002114485981
0.000453271028
0.0002476635514
0.0008341121495
0.0004742990654
0.0004439252336
0.000773364486
0.0005654205607
0.0006121495327
0.0007757009346
0.001953271028
0.001789719626
0.001495327103
0.001462616822
0.001621495327
0.00183411215
0.001563084112
0.001464953271
0.001838785047
0.001829439252
0.002228971963
0.00253271028
0.002549065421
0.003455607477
0.002775700935
0.00246728972
0.001621495327
0.00171728972
0.002158878505
0.002686915888
0.002359813084
0.002121495327
0.002927570093
0.003044392523
0.002464953271
0.002691588785
0.003147196262
0.004065420561
0.003481308411
0.003072429907
0.002563084112
0.003077102804
0.002859813084
0.0007476635514
9.579439252e-05
0.0005934579439
0.0001939252336
0.000453271028
0.0004579439252
0.0005
0.001044392523
0.001521028037
0.001488317757
0.001378504673
0.001628504673
0.001773364486
0.001869158879
0.001785046729
0.001719626168
0.001696261682
0.003163551402
0.002289719626
0.002306074766
0.001962616822
0.001878504673
0.002579439252
0.002268691589
0.002112149533
0.002663551402
0.002427570093
0.002390186916
0.003109813084
0.002107476636
0.002186915888
0.002235981308
0.003095794393
0.002469626168
0.002595794393
0.002672897196
0.002679906542
0.004464953271
0.003238317757
0.002925233645
0.002598130841
0.002317757009
0.0001775700935
0.000226635514
0.0009392523364
0.000558411215
0.00075
0.0006635514019
0.00108411215
0.001287383178
0.001228971963
0.001693925234
0.001268691589
0.001373831776
0.001436915888
0.001462616822
0.001698598131
0.001946261682
0.001371495327
0.001796728972
0.00158411215
0.00136682243
0.001476635514
0.001789719626
0.002002336449
0.001457943925
0.001586448598
0.00178271028
0.001586448598
0.001623831776
0.001425233645
0.002497663551
0.001623831776
0.002109813084
0.001932242991
0.001906542056
0.001352803738
0.001822429907
0.002876168224
0.003841121495
0.00228271028
0.002039719626
0.00296728972
0.002172897196
0.0002219626168
0.0001074766355
0.0002406542056
0.0004392523364
0.0003831775701
0.0004813084112
0.0005794392523
0.0006845794393
0.0009719626168
0.001654205607
0.001740654206
0.002168224299
0.001707943925
0.001579439252
0.001824766355
0.001962616822
0.002009345794
0.002390186916
0.001796728972
0.002231308411
0.002088785047
0.001845794393
0.001696261682
0.001719626168
0.001731308411
0.001668224299
0.001985981308
0.00153271028
0.002107476636
0.002974299065
0.002436915888
0.002558411215
0.00275
0.003329439252
0.002705607477
0.002198598131
0.002105140187
0.002408878505
0.00351635514
0.003119158879
0.003331775701
0.002635514019
0.0005280373832
8.878504673e-05
0.0003668224299
0.0006752336449
0.000796728972
0.0008644859813
0.001060747664
0.001060747664
0.001661214953
0.001320093458
0.001824766355
0.0025
0.001950934579
0.001922897196
0.001939252336
0.001824766355
0.002042056075
0.002455607477
0.002761682243
0.001773364486
0.001873831776
0.00213317757
0.002007009346
0.002570093458
0.00313317757
0.00225
0.002264018692
0.002806074766
0.002969626168
0.003373831776
0.002387850467
0.003219626168
0.002658878505
0.002371495327
0.003207943925
0.003724299065
0.003219626168
0.002822429907
0.002845794393
0.002345794393
0.002264018692
0.002063084112
0.001682242991
0.0002803738318
0.0003434579439
0.0004836448598
0.0004813084112
0.0008294392523
0.0005700934579
0.0006775700935
0.001102803738
0.001205607477
0.001602803738
0.001565420561
0.0009906542056
0.001177570093
0.001074766355
0.000976635514
0.001689252336
0.001401869159
0.002427570093
0.001892523364
0.001962616822
0.003028037383
0.002436915888
0.002852803738
0.002228971963
0.002654205607
0.003502336449
0.002196261682
0.002177570093
0.00303271028
0.002827102804
0.002962616822
0.002670560748
0.003651869159
0.00396728972
0.003544392523
0.002056074766
0.001969626168
0.002586448598
0.002098130841
0.001873831776
0.001626168224
0.0001355140187
5.140186916e-05
0.000191588785
0.000203271028
0.0003691588785
0.0005817757009
0.001135514019
0.0007570093458
0.001128504673
0.00113317757
0.001156542056
0.001151869159
0.001315420561
0.001492990654
0.001936915888
0.002619158879
0.001843457944
0.002009345794
0.002126168224
0.002126168224
0.002630841121
0.001565420561
0.001724299065
0.002679906542
0.003044392523
0.002628504673
0.003901869159
0.002558411215
0.002357476636
0.002728971963
0.003144859813
0.004306074766
0.004028037383
0.003023364486
0.002719626168
0.002992990654
0.002591121495
0.002446261682
0.002329439252
0.00233411215
0.002324766355
0.002838785047
0.0001962616822
0.000226635514
0.0002897196262
0.0004205607477
0.000535046729
0.0007056074766
0.001448598131
0.001261682243
0.001817757009
0.00108411215
0.001
0.001219626168
0.001158878505
0.001894859813
0.002413551402
0.002095794393
0.001976635514
0.001504672897
0.002
0.001422897196
0.002238317757
0.001873831776
0.00158411215
0.001553738318
0.00264953271
0.001943925234
0.001558411215
0.001642523364
0.001712616822
0.001747663551
0.002464953271
0.002401869159
0.00276635514
0.003135514019
0.00328271028
0.003376168224
0.002119158879
0.003004672897
0.002703271028
0.002341121495
0.002177570093
0.002168224299
0.0003901869159
0.0003247663551
0.0004042056075
0.0005771028037
0.0006775700935
0.001224299065
0.0009509345794
0.0008691588785
0.0008901869159
0.0009065420561
0.001130841121
0.001261682243
0.001726635514
0.00158411215
0.002107476636
0.001308411215
0.001595794393
0.001457943925
0.001453271028
0.001168224299
0.001378504673
0.00135046729
0.001280373832
0.001586448598
0.001623831776
0.002219626168
0.001948598131
0.001668224299
0.00146728972
0.001504672897
0.001719626168
0.002030373832
0.001490654206
0.001385514019
0.00225
0.002254672897
0.002857476636
0.002280373832
0.001588785047
0.002205607477
0.001780373832
0.001642523364
2.336448598e-05
0.0001542056075
0.000238317757
0.0002827102804
0.0006191588785
0.0004626168224
0.0008364485981
0.001018691589
0.0008481308411
0.001231308411
0.001623831776
0.001091121495
0.001661214953
0.001341121495
0.001175233645
0.001140186916
0.001170560748
0.001242990654
0.00148364486
0.001420560748
0.001668224299
0.001425233645
0.00235046729
0.002021028037
0.002656542056
0.003413551402
0.00191588785
0.001962616822
0.001978971963
0.002121495327
0.002121495327
0.002446261682
0.00239953271
0.002343457944
0.002406542056
0.002123831776
0.002331775701
0.00385046729
0.001801401869
0.002077102804
0.002235981308
0.00221728972
0.002077102804
0.002696261682
0.001163551402
0.002051401869
0.002754672897
0.001264018692
0.0008948598131
0.001507009346
0.003077102804
0.004086448598
0.002198598131
0.002864485981
0.004457943925
0.001960280374
0.002612149533
0.002579439252
0.003093457944
0.00248364486
0.002759345794
0.003310747664
0.0035
0.002574766355
0.003252336449
0.004168224299
0.003878504673
0.005130841121
0.006544392523
0.004481308411
0.003581775701
0.00358411215
0.003925233645
0.003759345794
0.003838785047
0.003661214953
0.003836448598
0.00371728972
0.003558411215
0.004271028037
0.004004672897
0.004228971963
0.004063084112
0.003981308411
0.00141588785
0.001764018692
0.003495327103
0.00223364486
0.003198598131
0.004712616822
0.003859813084
0.00553271028
0.004551401869
0.007806074766
0.002595794393
0.003362149533
0.005051401869
0.002838785047
0.002537383178
0.003957943925
0.004565420561
0.003271028037
0.004070093458
0.005453271028
0.004460280374
0.00488317757
0.003836448598
0.004485981308
0.004336448598
0.006570093458
0.004787383178
0.006621495327
0.004154205607
0.004324766355
0.004478971963
0.003808411215
0.004525700935
0.004885514019
0.004144859813
0.004768691589
0.00371728972
0.003448598131
0.003714953271
0.005686915888
0.004348130841
0.004261682243
0.001009345794
0.001460280374
0.002207943925
0.002056074766
0.002042056075
0.002514018692
0.006635514019
0.00435046729
0.006380841121
0.007105140187
0.005018691589
0.004890186916
0.007724299065
0.004380841121
0.002841121495
0.003827102804
0.005855140187
0.006848130841
0.005072429907
0.004932242991
0.004799065421
0.005619158879
0.005906542056
0.006764018692
0.006299065421
0.004446261682
0.004752336449
0.005315420561
0.006355140187
0.005488317757
0.005535046729
0.003859813084
0.00333411215
0.003813084112
0.003927570093
0.004161214953
0.004693925234
0.004338785047
0.004259345794
0.004992990654
0.004612149533
0.004102803738
0.001719626168
0.001240654206
0.001780373832
0.00173364486
0.002359813084
0.001546728972
0.002920560748
0.003700934579
0.007079439252
0.005705607477
0.003761682243
0.004978971963
0.005044392523
0.007376168224
0.006
0.006481308411
0.007364485981
0.006950934579
0.004086448598
0.004957943925
0.004642523364
0.005957943925
0.005371495327
0.006943925234
0.003406542056
0.00660046729
0.00436682243
0.004231308411
0.004771028037
0.004929906542
0.005441588785
0.005088785047
0.004661214953
0.003735981308
0.004177570093
0.004144859813
0.004285046729
0.004278037383
0.003525700935
0.005140186916
0.004827102804
0.003422897196
0.001644859813
0.003193925234
0.002352803738
0.002088785047
0.002824766355
0.003460280374
0.005724299065
0.002908878505
0.005560747664
0.005418224299
0.006273364486
0.004570093458
0.0035