/*--------------------------------*- C++ -*----------------------------------*\
| =========                 |                                                 |
| \\      /  F ield         | OpenFOAM: The Open Source CFD Toolbox           |
|  \\    /   O peration     | Version:  v1706                                 |
|   \\  /    A nd           | Web:      www.OpenFOAM.com                      |
|    \\/     M anipulation  |                                                 |
\*---------------------------------------------------------------------------*/
FoamFile
{
    version     2.0;
    format      ascii;
    class       volScalarField;
    location    "3.996";
    object      Ma_mixture;
}
// * * * * * * * * * * * * * * * * * * * * * * * * * * * * * * * * * * * * * //

dimensions      [0 0 0 0 0 0 0];


internalField   nonuniform List<scalar> 
50792
(
0.6949295786
0.9862492876
0.9251103722
2.107288873
1.741571487
1.484808375
1.594329273
2.37081658
2.156796057
2.950747238
2.114198745
3.015286433
1.843120744
2.462345993
2.568114926
2.010281583
4.330042833
4.77102936
3.836675308
5.046676488
3.021359889
3.041043513
5.038826163
4.31165127
2.994162464
8.531713125
2.747013267
2.437327791
4.021059327
3.587780769
2.89601033
4.263927695
6.238969316
4.179420543
3.665980322
4.113019728
3.080993368
4.058509434
4.178042758
3.465826594
3.087984611
3.026579513
0.4790601786
17.53288028
18.08554497
3.524334001
1.921474868
2.300154848
2.813201238
2.384786538
3.226297736
2.740609068
3.852166777
3.339676667
3.844886713
2.867287683
2.50002386
2.688313728
3.905561835
3.337886145
3.115320394
3.124227252
3.207060845
3.028819373
2.671171556
2.529410575
2.181645338
2.896431134
2.953916616
2.584638035
2.611126757
2.472915862
2.285351868
2.345928
2.530978359
3.072179274
3.141981372
2.258276329
2.854088522
1.952898957
2.173855344
2.244686133
4.349025766
5.570087789
0.6586298894
22.42060293
4.597622974
3.786338378
3.901260504
3.078896959
1.888878175
4.36226073
4.669894092
2.742534917
2.653541211
5.54849965
2.281601725
2.952954905
2.677229066
4.916458408
3.345318799
2.337796227
2.280179325
2.488202151
2.57044944
3.13339418
2.347863616
2.245458644
3.360576207
2.53985788
2.639492709
4.388143993
2.404142223
2.489447975
2.86637905
2.567437894
3.018891786
2.48728937
2.363920499
2.598352444
2.466350393
2.021549508
2.012078973
2.557039887
2.641173361
3.004670133
0.6354229797
1.598648017
2.833514765
3.431415336
2.775873253
9.725071764
3.826897557
5.274350056
3.379365375
2.51718467
1.981381167
1.924698378
2.045838482
3.59307654
2.56162789
1.992049469
1.961825933
2.224501917
2.728809216
1.699576214
1.761173683
1.898179304
2.861254529
2.002763393
1.737103546
2.334476977
2.319691455
2.37849453
1.95774403
1.754574094
2.045633867
1.88910622
2.322409258
2.788267749
2.431488907
2.883033776
2.988157374
2.784515162
2.111457356
2.942724993
3.405542082
3.664804323
0.6249330855
1.263908255
3.588564404
3.154163132
5.403218028
4.429977642
1.793991363
3.566857389
2.901168601
3.484873489
3.093856555
6.819640859
2.96244009
3.742011692
2.857450487
2.823556494
2.412936468
2.207121385
2.049538532
2.04489979
2.462692903
1.737409501
1.798006905
2.341805685
1.953190731
1.898224323
2.074192754
2.540224392
2.248826134
1.732279503
1.819303458
2.704440285
2.030482771
2.780214442
2.572409918
2.542464729
2.69431348
2.114475038
1.962906836
2.758632123
2.316228567
3.057221723
0.5207115748
3.998852909
1.618554106
3.131466727
2.659176033
3.859386955
3.9428283
2.589950357
2.719171372
4.530586276
4.314524014
2.087312186
3.309087004
2.711140316
3.590861871
3.032959813
3.490517609
4.597406417
2.453071093
2.558478698
2.721960096
2.136457255
1.940102659
1.93963001
3.091713059
2.680675493
2.865291679
2.180399942
1.992974462
3.06058611
1.820282219
2.669135902
2.103642715
2.481683151
2.571116075
2.018002548
2.82090352
2.69739593
2.882476015
2.654126538
2.630054278
4.497700994
0.4569437826
22.61187764
4.16513891
21.95110455
21.8392819
9.107136774
2.150161285
2.500699774
2.978688002
3.807911783
3.309384706
3.008085003
2.454835322
3.538976683
4.45076894
5.164848796
2.675709375
3.235339272
3.089777435
2.30893204
2.497210978
1.855410232
1.973021963
2.682116643
2.098631185
1.965640399
2.465328748
2.241477255
3.187634853
2.903566057
2.010921985
2.304404233
2.486635663
2.986923627
2.571006641
3.69019636
3.445377693
2.589577962
2.752683362
2.20683627
2.521830832
6.081300508
0.3567944348
2.935983317
21.34347648
16.24091972
20.63029076
4.113978405
2.118579877
2.759008249
3.928839273
2.473853433
3.208803232
4.835361673
5.733992461
3.587673661
4.252589341
2.714933641
2.181269001
2.598196952
2.778978247
2.301990465
3.256521485
2.583314801
2.358612909
3.037230041
2.239390725
2.119078714
2.189712321
2.917149807
2.643699768
2.648379601
2.504293685
2.81400721
3.289025507
2.896598665
2.83222319
3.618222819
2.070983118
1.955152907
2.227294671
2.773167665
2.816167627
3.308833076
0.3279813552
1.626599907
1.612341527
2.52709003
2.17670149
2.426930081
3.65387018
2.735515666
2.949091228
3.091469236
3.975501904
3.35167947
5.383877316
2.936543956
3.206572122
2.969440961
2.955451506
3.586940754
2.566031363
2.412912121
3.098193467
1.826044815
3.103313407
2.591194234
2.143818994
1.934773352
2.567855628
2.173498083
2.432359952
1.816155846
1.704980847
1.986669512
2.018899802
2.853379923
2.291677301
2.972063735
1.910725543
1.846659647
2.306465129
2.035285397
2.416660634
5.274492756
0.3995604224
22.54684355
2.005482146
4.982952538
1.695442248
2.323102656
3.507817019
2.981179447
2.550140125
2.544602048
3.052653777
1.992961816
2.821816156
2.755456305
2.451782866
2.152536115
2.917428969
2.47735836
1.946777001
1.972694088
1.839798449
2.498462905
2.038842389
2.886039599
2.897423993
4.018663524
2.54464617
2.526833777
2.270965786
1.811160356
2.724945598
2.301285478
3.771947411
2.118000082
3.216051124
2.616699275
2.086507644
1.891841587
2.279637483
2.167202971
2.227138576
3.29866045
0.3986609556
22.6208186
2.743630734
3.14686009
2.055905019
2.313483203
6.553841953
2.685514144
1.799180072
2.456084587
2.261297941
3.417091487
2.498340158
4.072363934
2.197202101
2.554100194
2.604629143
3.042139914
3.733109603
2.426827311
2.505047614
1.723275195
2.040505799
2.238556168
2.698798076
2.945840553
2.781846421
2.202030793
2.496001553
2.212128195
2.131403835
3.090927047
2.355114197
2.594076767
2.104561153
2.979637754
2.398958283
2.389521304
2.224691532
2.779576867
2.48088386
5.554563422
0.305657887
1.655533405
2.803293829
3.27954874
3.653402132
2.010675689
5.828897419
2.672325504
2.264659182
2.849392524
2.968031619
1.956238602
2.631072923
2.464924372
3.6206123
3.621728528
3.212645175
2.971775171
2.04095814
2.348863109
2.650918365
2.256511056
2.537437233
3.088061138
3.475209004
2.655671489
2.32893176
2.277662643
1.772944927
2.092127056
1.897685398
2.190386793
1.882784462
2.628444141
2.675766488
2.308109857
2.450788222
2.035200395
2.29361783
2.409268439
3.301717502
5.401003134
0.3859459186
2.223055374
21.80319212
9.926773545
4.305571069
2.68868717
2.296045545
3.93007591
2.859686728
2.987132738
6.369238188
2.146262059
2.725173881
3.072796981
3.957732389
5.658384062
3.033926461
3.241839732
2.353096109
2.045589899
2.674340687
3.700127885
2.151539583
2.828607411
2.641997921
3.340803013
2.92773745
2.384391868
1.923685563
2.093592493
2.508272263
2.437470708
2.054733187
2.304044905
2.483532971
2.320583273
2.017984968
2.388674617
2.487104273
2.343403661
2.443561515
4.629320785
0.3560285555
1.038070199
2.346823647
2.695800823
2.043999032
1.895159293
2.111855661
1.509980239
1.880146754
2.305877729
2.863960867
1.973855299
4.202245813
1.996381126
2.577463497
3.204451929
3.934513737
2.912200576
2.60519456
3.400634431
3.182649545
2.520473313
2.325726148
1.947123122
1.947434148
2.113233342
2.192248299
1.916301239
1.818565489
2.256680745
2.160093869
1.912492472
1.981975027
2.821266543
2.676381182
1.687205513
1.854279401
2.283510356
2.182187872
2.726887684
2.603352429
4.042815465
0.348184658
3.93271031
2.527741785
2.254462643
2.867732096
2.977639818
2.03162639
2.144134579
2.604651696
2.168958542
2.469925242
2.668182483
3.783527484
2.76328965
2.787541415
2.823784577
4.677905065
2.642113212
2.077508001
2.349343203
3.568216963
2.51117597
2.191794024
1.876819004
2.096644707
1.895609133
2.929187814
2.517244051
2.348205004
1.886066434
2.089940562
2.165067141
1.960647298
2.142899226
1.696093918
2.035364645
1.858427641
1.775435722
1.881729737
2.623510904
2.741923075
5.13494426
0.3299935502
23.3564438
21.54135328
6.093402086
2.201001819
2.457299997
2.873003669
2.055744194
2.263881689
1.981417679
2.387815292
3.438774091
3.390400667
2.263849921
2.870550496
2.593602175
2.067233118
2.271080319
2.572921835
1.86019342
2.591303502
2.159400334
2.732110817
2.102099129
2.694830764
2.636469071
1.938293813
2.128395503
2.538330696
1.995854551
2.435735558
2.7154911
2.233524212
2.293799732
1.820282171
2.896071753
2.033282089
2.662610485
2.368164748
2.732877551
2.676856059
3.172462247
0.4510593889
22.82060825
21.85235256
8.298145092
3.300453471
22.09002639
3.627111369
2.331943228
2.605137448
1.923054533
6.750194268
3.727667882
2.174139823
2.980475663
2.295487268
2.464681814
2.864566297
2.399771146
1.665577156
2.328561693
2.996734053
2.875307682
2.643879413
2.162595081
2.147483366
2.894101898
2.016943285
2.555194719
2.150557717
2.320060826
2.447532426
2.615518723
2.330686682
2.294253354
1.906518371
2.034729776
2.176212021
2.77637821
2.735661765
2.125285972
2.829650275
5.702494348
0.5345129884
2.599899819
8.676378254
20.98128285
3.52251458
5.280376724
3.173378541
3.422177379
2.104168284
2.811162561
3.333191407
2.952540132
2.772115581
3.214223898
2.962751709
2.16710683
2.779868662
2.281585485
1.582034924
1.738293034
2.433564869
2.267471474
2.316702046
1.657218588
1.992428076
1.771184265
1.808999481
2.605364103
2.366971149
2.851041961
2.466615512
2.792021913
3.022532806
3.083615674
2.501888813
1.997522356
1.739289444
2.43140163
2.253438657
2.154458504
2.706859736
7.537154858
0.5261875563
27.71587179
2.59645124
6.718119107
4.070484244
2.646855888
1.795793547
5.142904001
3.493151652
2.84813687
2.365690157
3.346887857
2.488314157
2.302716804
2.128782558
2.989518435
2.581342596
2.236412203
2.176086524
2.060335491
2.631276093
2.537143102
2.525560679
1.783662411
2.271005567
2.675718992
1.934467999
2.256624888
2.234525397
1.995851101
2.135412275
1.892202978
2.504632026
2.510782117
2.194828514
2.05115895
1.707615481
2.2787902
2.851878152
2.884162882
3.080917879
6.180350577
0.5411955642
4.593421035
3.79360873
2.670536187
2.285128611
2.729215901
2.720975276
4.288957755
5.13653618
1.900616793
1.740664829
3.050060529
2.651967192
2.499503178
2.955509278
2.282668924
2.421032884
1.933417757
3.707879641
1.883340361
2.203273838
2.385566246
1.893539991
1.504478248
1.787538202
1.851786147
1.645988442
1.58881233
2.083217691
2.082745225
2.148914166
2.416122808
2.392583441
1.947121338
2.631768315
3.603271338
2.280410922
2.388136007
2.38427083
3.020287676
2.864546567
3.522123753
0.4470776269
22.14640643
2.641725136
3.107265939
2.168091341
3.630348302
3.808278044
2.640587048
2.3195466
2.472635829
3.752928496
2.367861951
3.419328799
1.65571649
2.717953839
2.499318939
1.807719955
2.069909768
2.32481781
2.004809963
1.604519276
1.773562305
1.806223028
2.036216497
1.945939344
2.371784556
1.93680762
1.960693317
1.779853303
2.055860323
1.887371061
2.266325157
2.091932124
2.304144483
2.363445898
2.123666292
2.697025143
2.042220292
2.7096564
3.505036586
2.299272125
3.267912083
0.4106394177
21.19010365
1.435536884
2.934278536
2.431673081
2.035882084
2.239937672
3.56848336
3.822709856
3.439935662
3.191585759
2.842992822
2.413525087
2.406671801
1.706892888
2.246775984
2.363803605
1.92022183
2.791515973
2.41522853
2.385762031
2.466903702
1.975819436
1.63915532
2.294795958
1.9456738
1.940394251
2.226817551
2.688144691
2.573688402
2.126319169
2.039342232
1.795009886
1.717779503
2.216948297
1.614032942
1.950730273
1.728869786
2.368250738
1.95980947
2.499419835
4.458023902
0.5904791073
7.070309293
2.541485519
22.42095144
1.973222073
2.377568412
3.126292709
2.332545757
4.015640811
2.886475138
2.300972375
3.803645941
3.348442854
2.161693671
2.902838916
2.06701886
2.095203198
1.826016759
2.157212204
3.520314307
3.389905222
2.874435786
2.081907488
2.573784253
1.888008842
2.912713114
2.362238386
2.633774961
3.69267556
2.633597744
2.260143074
1.775386969
1.857584001
2.266495807
1.819254658
2.519428057
1.933619026
1.983958618
2.33035949
2.787487835
3.22050626
4.767716013
0.3358610692
1.29516199
3.81789407
2.429124321
2.993439968
5.817866113
5.292286167
4.262881495
2.482743517
2.371872132
2.354757838
2.556001762
2.275625085
2.324744306
2.180842826
2.631375089
2.221166741
1.652186581
2.048341651
3.38870567
3.382332563
3.018087736
2.493817763
3.048769567
1.742484516
1.94232988
1.781485914
2.399652556
2.687525316
3.551101882
2.849075597
1.976184986
1.8044523
1.792577624
2.490701841
2.704235498
2.419558633
1.864778946
2.084031029
2.11609163
2.775846267
4.076441643
0.4961198336
1.53628237
2.104824426
3.816770433
10.41967912
6.16654302
3.34697288
4.373652264
3.400016178
2.655482833
2.356335621
2.891981074
2.321624038
2.648525351
2.213403719
2.035636833
2.293801866
2.264115287
2.940275584
2.141645816
3.644492855
2.81709392
2.655202531
2.538723876
2.336422056
2.022275401
2.295927771
2.283247615
2.090237126
2.550228866
2.130598898
2.074885618
2.314238912
1.848743162
2.089606979
2.213903603
2.791372884
2.234520185
2.943428144
3.05808757
2.592475193
4.050146675
0.6319870634
2.416807224
3.218501725
19.41718959
3.477735047
2.457914233
1.875540655
2.86190753
2.783317331
2.982232885
5.147265979
3.33078462
2.100912848
1.906727928
1.796987525
1.79715467
1.803783478
2.107405983
2.942401359
2.318482609
2.62033567
3.727834413
2.01467533
2.336304784
2.443397397
2.385625444
2.002863864
1.89918222
2.327213344
2.286054128
2.096531445
2.727716587
2.077435857
2.318937857
1.932008613
2.304154384
3.948903502
2.818961199
2.494864047
2.418459565
3.313639898
2.542765668
0.4010993577
3.220991987
1.448377818
1.615764433
3.583630095
3.233274958
6.077104235
5.040756419
5.056908968
5.639810186
3.139997149
2.838141078
2.980153436
2.227866669
2.469296025
2.802477029
2.029646431
2.034256572
2.136553424
1.717116434
1.90959248
2.910671369
2.763730652
2.776942294
2.092974096
2.548064691
2.179686259
2.432496658
2.055220217
2.551756241
2.120541122
2.274997171
2.289290042
2.224455965
2.352102066
2.171999223
2.407753601
2.058271927
2.722445242
3.032097243
4.378827635
3.028207643
0.2097264198
1.298067832
2.949833008
1.627876207
2.043063788
1.9277841
3.081882938
3.820727517
3.950101855
6.123298503
3.633340745
2.795670156
4.656657075
2.364387495
2.290580686
2.194686398
1.908958943
1.930468632
2.390720301
2.099083855
1.773718818
2.328200475
2.515971581
3.468489543
2.65404967
3.48759223
2.192220839
2.100392714
1.894935351
2.152478009
2.703791868
2.624030627
2.858985594
2.085946112
2.112602137
2.398254416
2.138786646
3.115475217
2.299507993
2.698809025
3.285905394
4.375335192
0.3655250075
1.967278358
1.484244797
1.998732051
6.587943517
5.514110025
2.778683672
2.905868903
2.394573095
3.025923663
3.13852844
2.65582866
2.234820169
2.269003821
2.20175337
2.657976103
2.345159257
1.76842823
2.284487507
1.816086111
2.067513487
2.75251658
2.624632643
1.998266145
1.909224998
2.13153688
1.896266388
2.313853526
2.067153442
2.210676375
2.514830534
2.246331999
2.390738705
3.260908988
3.39019031
2.283820526
2.757649832
2.83630399
2.703591113
2.547355567
2.985200756
3.11363198
0.3721811019
1.733606811
1.730010912
2.324805837
7.813744232
3.856439466
2.999492325
2.427277123
2.465857414
6.458302655
3.279516629
3.175729401
2.54198288
3.374150597
2.651104755
4.419260193
2.711259177
2.936552809
1.898633733
2.664232159
2.241866235
2.427806659
2.541649124
1.607366025
2.022894734
1.8129271
2.264759899
2.464607301
2.833480858
2.952056383
2.537286654
2.669113146
2.674224326
2.099195614
2.236800987
2.175732253
2.011555125
1.802514094
1.836502445
1.734537475
2.561111527
3.069974582
0.4187481157
1.455805397
3.176341038
20.06803534
19.15282766
3.770853773
1.898031858
3.128684366
2.025409311
2.689650973
4.184248085
3.58914486
4.323194403
2.311606587
2.622423094
2.609382668
1.988738466
3.592074873
2.066307645
2.463994082
1.656425624
2.214032568
2.141807714
2.528207153
1.654297178
2.361812704
1.869064289
2.407318398
2.136174219
2.624588257
1.889700728
2.176584878
2.39635467
2.274155609
2.254068421
2.140233148
2.403561636
2.336663991
1.816139234
2.484902116
2.474266016
4.342402587
0.4262326292
1.245183141
8.479580437
17.77127476
18.00137687
3.083043847
3.274382023
2.598020634
3.251921804
3.43462006
2.783440195
3.405344489
4.530204405
6.738342455
2.646758855
2.239019353
3.084788505
3.016644431
3.044139703
2.269739348
1.735973641
1.950524045
1.811061871
1.731670735
1.825273564
2.00651508
2.776178859
2.447901681
2.180134582
2.811513597
2.320843334
2.028856376
2.407744755
2.00541485
2.825526537
2.207241226
2.261554022
2.104322478
2.343117636
1.958134198
2.789488531
3.183001118
0.5377410182
1.771184103
2.451328768
9.1876958
2.735701126
4.00889871
22.15269705
8.114633093
2.279430766
2.043506952
2.895771048
3.035699391
3.359612211
3.840638622
2.114563818
3.263455947
2.517509997
2.119148461
2.854615464
2.20225214
1.947368321
1.881303995
1.703966838
1.763267278
2.105165872
1.987199395
2.617295363
2.764400238
2.569713761
2.535973247
2.34567531
2.115511042
2.194283788
2.114425904
2.74614553
2.488874246
2.549932031
2.007861679
2.236520515
2.246520426
2.596000277
4.06125586
0.5074093916
5.768312756
2.037004476
2.799011763
3.488217003
4.185816526
2.343755313
2.680873396
1.994645422
3.008193523
2.820578704
3.637870242
4.249413629
2.945463442
2.378889228
3.017538088
2.705189834
2.131473268
3.529937337
2.416645506
2.315573597
2.386291051
1.926339817
2.149847865
2.602117301
2.097607218
2.08631621
2.262197136
1.857899009
2.547527449
2.619649118
2.568187271
2.147080294
2.447356683
2.031052384
2.487616502
2.822354551
2.033471088
2.772388643
2.386659159
2.924178133
4.211117863
0.4358833274
24.48783363
2.471342058
2.656889672
1.652745004
2.555002456
2.619780755
1.957951428
2.787335369
1.68456603
1.819939966
3.341815449
2.531292943
2.237928294
2.188905049
2.263440194
2.525904016
1.800105344
2.396650541
2.919288221
3.386377868
2.264609578
2.894100052
1.888246986
2.175340175
2.274504558
1.98951901
2.109220504
2.513347129
2.026583427
2.960476733
2.40834958
2.22727198
2.07148404
2.54729538
2.553676886
2.485502244
2.068204746
1.943663851
2.937092228
3.218769007
2.921295229
0.3480817495
23.24238911
4.361649135
3.562912584
6.621173461
11.61517505
2.794514035
2.439853026
2.577492954
1.962472817
1.887288277
2.013123796
2.600275919
2.260021731
2.843364692
2.76757955
4.497575804
2.214450692
2.325846049
2.251202422
2.54804588
1.984336564
2.223611058
2.437055928
2.480974923
2.503423214
2.131795264
2.895285779
1.850047555
2.059872684
2.285154923
2.493109999
2.937780108
2.582025665
2.408130695
2.484985622
2.270215557
2.293537542
2.207932126
2.304419758
2.411419436
3.483945364
0.3899372685
23.27745874
25.27083336
25.16604257
7.588522672
3.805839845
2.697142779
2.95330609
2.744147672
2.018164787
2.011457311
1.830141902
1.971699389
2.689119616
3.186851141
2.988542474
3.091984956
2.30692932
2.269633726
3.107379909
4.05579698
3.160187415
2.876604179
2.472856087
2.517298222
2.741963507
2.543854768
2.613462339
2.581548486
1.998535412
2.837815617
2.390311963
2.702466812
2.905793884
1.89320572
1.807616179
2.570629185
2.227912212
2.34127645
1.935354454
2.365522014
3.594633173
0.4012139086
22.85346757
21.89665122
2.553895565
2.799042416
2.958756086
3.57299665
2.398188381
2.178351716
2.458914017
2.14546658
2.776635542
3.765656997
2.245093517
3.170518848
1.962644359
2.260359675
3.01316582
2.298735928
2.176088825
2.984706671
2.304920581
2.085178494
1.868552111
2.445856753
2.363876124
1.992769929
2.350956628
2.66907229
1.92552496
2.751627837
2.104238266
2.208696817
2.154181705
2.306224725
1.774170013
2.446091287
2.582635766
2.590558788
2.218153097
2.7076547
2.960479785
0.5861866515
2.091120008
2.593891324
1.896646019
1.777910177
2.308799984
2.559043724
3.025800709
2.797263025
3.098571188
2.973757679
2.385012513
4.010470952
3.637140925
3.577691402
2.200282925
3.334965087
2.788150505
2.10764072
2.671318257
1.659936352
2.023183081
2.755718312
2.403339365
2.111923421
2.748524628
2.22490507
2.7124468
4.137907308
2.664862139
2.054032186
2.043995299
1.975355505
1.923970749
2.193686726
2.118431285
2.986588155
3.222869952
2.767013379
2.7623201
3.308991722
3.187691794
0.4410857174
0.8592066122
1.265093417
1.289077874
1.882764241
2.248625083
1.431272529
3.029454498
2.760684452
3.768778023
2.929720034
1.874234681
2.504307567
2.941745602
2.451030511
2.110669078
2.748491437
2.508354027
1.789195979
1.752492659
2.061612495
3.458341605
3.939376188
2.604814106
2.107056204
2.185802056
2.249910669
2.795025986
3.559305406
3.299929055
2.369641528
2.239284205
1.840015757
2.316090398
2.365197909
2.180880922
2.989204371
2.670866794
3.086838486
2.937540888
4.299161017
3.504155708
0.3818523201
4.869086664
2.489255319
3.466377878
3.279900902
2.17078621
3.025308771
4.539255662
5.743591906
4.342820116
3.220542683
3.379311325
2.424686374
3.84059922
2.509125374
2.502170975
4.20550045
2.284205203
2.464935703
1.952031513
3.141551772
3.682027053
3.415540048
2.790764241
2.561408405
2.587438305
1.910259702
2.173179021
3.620911384
3.342555889
2.955351473
2.512746489
3.053765987
3.023442251
2.738360157
2.117946786
2.302583783
2.653599854
4.858148376
2.748149993
5.821390322
5.966035663
0.5566026139
1.487370369
1.037304775
1.067239614
1.266507584
1.690884964
2.332360441
2.103955739
4.311782652
2.198713874
2.221742252
2.310243952
2.506426206
2.55321379
2.945620562
3.416941101
5.121135911
3.738315606
5.352286188
3.562831756
3.557475566
6.38893459
3.357887394
3.041499126
3.702842577
2.961010426
3.767040358
4.114693507
4.539028723
4.075277164
4.462223882
3.675717795
3.905562554
3.500468519
3.982316062
3.637990358
3.882692098
3.035218559
4.730949181
5.497141854
5.213008448
4.303080925
0.9745633196
0.5412017596
0.542494384
0.5445709409
0.6763930289
0.922624163
0.9271171623
1.048274508
0.9519890728
1.168947714
1.226219082
1.008913024
1.220163454
1.484827599
1.609309649
1.738755689
1.824386793
1.867147014
2.19517983
2.439719826
1.732243896
2.082850536
2.254480299
2.401475849
2.736792186
2.425037008
1.970181512
1.806770333
2.427181466
4.505235751
3.252232549
3.310984182
3.309028501
3.451665392
3.618385762
3.076077991
3.691906704
2.692986062
2.714204405
2.620153425
2.228127899
5.148158261
0.6775029996
0.4086746223
0.4971494562
0.5889367471
0.7258399429
0.5802717343
0.6513043482
0.5412437057
0.7592979948
0.7295997845
0.9665679528
0.8958709513
0.7945476748
1.122279339
1.237492552
1.122526868
1.121268135
1.168626104
1.440911403
1.22198544
1.281428354
1.306356609
1.385450157
1.635074861
1.65450325
1.404656588
1.450827859
1.482830589
1.572378378
1.912322874
2.340823618
2.582393869
2.639422655
1.973173137
2.183374911
1.68120017
2.113290697
2.120359461
1.925137537
2.166035179
2.253883167
3.92391344
0.5929856583
0.4008831604
0.343901461
0.5652926645
0.6771829782
0.5693335295
0.6049233976
0.6833576197
0.6866503098
0.6812735008
0.8105199027
0.7337648641
0.671741288
0.8913020671
1.252897649
1.173239605
0.954118809
1.106420215
1.184161171
1.193184216
1.261821989
1.289877267
1.343300068
1.277217766
1.47381965
1.469967483
1.58154101
1.402925332
1.624845346
1.847522892
1.80368372
1.986300442
1.799173331
1.772285889
1.687957303
1.78412046
1.685191436
2.103860572
1.739738515
1.529924209
2.077374332
2.717324302
0.5862147
0.393973787
0.577689703
0.5008415277
0.5948882941
0.625555306
0.5653600838
0.6272039391
0.4987646533
0.6060187074
0.591020948
0.6785263045
0.6544079045
0.6513586455
0.8739623233
0.8547790709
0.8353044477
0.9105890139
1.158865609
1.192513512
1.21097893
1.224136966
1.245298523
1.248841279
1.431224685
1.351913531
1.697010494
1.705151251
1.388399144
1.526988841
1.775156633
1.714369272
1.708333397
2.00363636
1.952986612
1.876587154
2.105220835
1.747144887
1.770963639
1.607594188
1.941264767
3.172901245
0.7327304462
0.352623796
0.2377056679
0.4269843575
0.4486622322
0.4219631669
0.4603951969
0.547738826
0.5631098866
0.62008789
0.6485553244
0.6483641583
0.6405360859
0.6519973426
0.760646717
0.7103535191
0.8179081765
0.9571176045
1.099755259
1.111721842
1.232484836
1.130511161
1.168912351
0.9530538918
1.311333542
1.693576089
1.596724374
1.499140538
1.50233028
1.457644373
1.672794933
1.751170269
1.860184217
2.050748084
2.110466602
1.710037445
1.558557752
1.622929595
1.937030821
1.74257219
2.024596494
2.945718381
0.8406264203
0.3441062681
0.2283086306
0.2998318652
0.3631067954
0.5617026622
0.4658522419
0.5094336953
0.5574962107
0.5558131377
0.6322343068
0.6616653242
0.6194311711
0.5267731357
0.5840555382
0.6149179822
0.6190568349
0.7729536607
0.8342411341
0.7472519896
0.8467427038
0.911308072
0.7973410141
0.6974380722
0.8198279214
1.143093909
1.370647206
1.374960284
1.273480856
1.655468967
1.744894442
1.647560428
1.497554627
1.629378748
2.071928265
2.277186198
1.639347713
1.61294177
1.922174135
2.428893873
2.502837672
3.385503156
0.6015689792
0.2925132582
0.2004156033
0.3135635079
0.4219965553
0.4374610967
0.5102041951
0.6219271731
0.6509905621
0.7079751176
0.6444855601
0.5661309865
0.5896271038
0.567356494
0.4813944846
0.4207076084
0.1669497963
0.6025503967
0.7154367879
0.8891016405
1.018021543
0.9186508291
1.156186288
1.865737051
1.509507696
1.682611423
1.766496806
1.602633799
1.907614062
2.007567529
2.01999103
1.908841427
1.979003178
3.14752602
0.568852579
0.1852874689
0.1787264087
0.2540123227
0.3193997946
0.3346292574
0.441763004
0.3759438517
0.4740212074
0.4222277444
0.5105156065
0.4922545693
0.4345623351
0.3262469099
0.1306936881
0.4196668003
0.626107479
0.7931043411
1.111848914
1.34215561
1.810151529
1.464927637
1.562583997
1.773063092
2.33520045
2.011404996
1.727716942
1.947786231
2.140097267
3.193659767
0.7171745574
0.2410739369
0.20653931
0.2512498462
0.30869321
0.3479149271
0.2605408085
0.2942805111
0.3973975864
0.3794939173
0.342838569
0.3335199238
0.107858134
0.0106342511
0.01474577931
0.02169939785
0.02046770563
0.01819379431
0.02246861848
0.01862977742
0.01522973016
0.3811850212
0.5648410413
1.253324297
1.270790631
1.505431448
2.060587608
2.117264274
1.332756354
2.123116481
1.90642386
2.200724524
2.74598361
3.052421884
1.012383056
0.3858980598
0.1928404739
0.2863378378
0.2767695441
0.280802998
0.2790331692
0.2899275559
0.3074960217
0.2690688479
0.167226176
0.01164298008
0.02284560957
0.05020383736
0.0569173441
0.08089218022
0.07768081876
0.0818978892
0.07660212307
0.06315176871
0.04587461141
0.0233277861
0.00865609044
0.516193375
0.7856476651
1.33791699
2.704987569
1.738698717
2.498473438
1.869676727
1.749407547
2.238066826
2.439028034
3.025935407
0.8655735839
0.3377043095
0.2017507776
0.2103925631
0.1538270935
0.1720147615
0.2055920944
0.1761973307
0.2243616049
0.1458065918
0.008001766082
0.02799262645
0.0481043409
0.07871745737
0.1197115457
0.1496235585
0.177104002
0.1824365783
0.1839651105
0.1610485664
0.1510119169
0.1208793921
0.08136843139
0.05423294675
0.02168934263
0.01086743036
0.9104664146
0.8685350259
1.298808921
2.591461123
1.578684968
2.027422954
2.801016359
1.268750955
1.842253803
1.924197942
0.8176599045
0.2151706194
0.2202396366
0.1241433611
0.2127802076
0.2767738016
0.2311373465
0.1610382975
0.1267795732
0.01822388379
0.03914436954
0.07369379904
0.1253728607
0.177484655
0.2298481031
0.2737244727
0.3093868015
0.3256235468
0.3342229953
0.3055107063
0.2761602077
0.2318855654
0.1729507856
0.1235055727
0.06904123473
0.03501592922
0.01053217826
0.8849461649
0.8286107247
1.095791248
4.006820016
2.309968627
1.786216991
1.72442952
1.702767746
2.521355858
0.8552285545
0.4348796603
0.2141664633
0.1379103471
0.1604863702
0.1296672402
0.09910897508
0.116984014
0.04731107432
0.01202528113
0.03927016194
0.09132743389
0.1524771056
0.2267052585
0.3073542849
0.3744419818
0.4296623856
0.4718987386
0.5033600403
0.5169254135
0.4740923715
0.435525882
0.3694685922
0.2961398293
0.2219376652
0.1468487949
0.08714966637
0.04641886676
0.01134522944
1.210193177
1.087884543
2.503889937
1.608012689
1.383575589
1.823244364
1.728231712
1.933204645
3.459457516
0.7214588648
0.1667635133
0.1615615163
0.1234592508
0.154722737
0.09373287119
0.115738366
0.1319394414
0.009978945067
0.04232917461
0.09013841798
0.1556564717
0.2462027108
0.3518642276
0.4617963882
0.5518487659
0.6132154503
0.6650144412
0.6827472344
0.689958286
0.6559957383
0.6114377049
0.5312493552
0.4470903541
0.3414134603
0.2477435528
0.1587086569
0.08371591995
0.03400450707
0.00911012719
21.30774097
3.950088686
1.43018953
1.818353228
1.627137205
1.705043844
3.218598079
3.151132547
0.7587099139
0.2275430909
0.1526108472
0.1087547794
0.1371662102
0.1458310703
0.1214848474
0.0414574283
0.02219167975
0.07560774167
0.152235919
0.2513711159
0.3691725817
0.4913985185
0.6115383611
0.7023316171
0.7524028818
0.7879361903
0.7996899544
0.8062317785
0.7901764386
0.7497490875
0.6874660246
0.6014753957
0.4896586698
0.3572159324
0.2449773461
0.1466788574
0.07545128501
0.02169854806
0.5890301111
1.468113543
1.166756819
2.937306422
3.863183019
4.013991036
2.298102739
5.640129967
1.096854277
0.3311758373
0.2147359581
0.05831393682
0.1256709425
0.15205015
0.137198347
0.01244621344
0.04829755502
0.1228835755
0.2277006973
0.348345784
0.4920069639
0.6339557058
0.7347567901
0.8010937635
0.8161462041
0.8207540154
0.8127498609
0.8196564644
0.8198676686
0.8166187212
0.7961713947
0.7297205981
0.6190070036
0.488388151
0.3524746637
0.2183370328
0.1174700645
0.0500343421
0.01036984815
0.957173696
2.312818071
1.365018063
2.720838123
1.372357607
2.144962617
5.776168127
0.7483824076
0.2587762618
0.09844489818
0.06880539488
0.1078704793
0.1719076766
0.09890950762
0.02422843925
0.08397824953
0.1738358943
0.3060574949
0.4562729109
0.6055493882
0.7372011564
0.8091497604
0.8184531741
0.7808899757
0.7485538613
0.7214327974
0.7260658864
0.747521083
0.7853432759
0.8130786855
0.7969448687
0.729213846
0.5971811182
0.4446629705
0.2893706333
0.1685982521
0.07772884762
0.02662560763
21.7160254
1.330361373
1.898184043
2.576702278