/*--------------------------------*- C++ -*----------------------------------*\
| =========                 |                                                 |
| \\      /  F ield         | OpenFOAM: The Open Source CFD Toolbox           |
|  \\    /   O peration     | Version:  v1706                                 |
|   \\  /    A nd           | Web:      www.OpenFOAM.com                      |
|    \\/     M anipulation  |                                                 |
\*---------------------------------------------------------------------------*/
FoamFile
{
    version     2.0;
    format      ascii;
    class       volScalarField;
    location    "3.996";
    object      Ma_N2;
}
// * * * * * * * * * * * * * * * * * * * * * * * * * * * * * * * * * * * * * //

dimensions      [0 0 0 0 0 0 0];


internalField   nonuniform List<scalar> 
50792
(
0.6221102727
1.61894624
1.385855801
1.936157225
1.617498335
1.403560432
1.4138893
2.589210135
2.194662395
2.687680515
2.427737686
3.511613638
1.977562426
2.590390504
2.234650116
2.071495465
4.411848521
5.252149241
3.411100358
4.468512512
2.626326857
2.741370519
5.296650364
4.226436936
2.692956311
8.440496006
6.700918462
2.389701206
4.150396093
3.889280976
2.920605338
4.28020248
5.937644654
3.794569083
5.110876471
3.693366131
2.714273396
3.934959931
3.785346315
3.092820536
2.753728078
2.676706947
0.4697129837
16.59606056
17.07577106
3.100844663
1.678521939
1.976882812
3.039208942
3.007677254
2.702489464
3.137748594
3.505954203
4.384287348
4.172432298
2.60305852
2.240144912
2.783072895
3.448766789
3.351518762
2.733698223
3.363245737
3.810155956
4.989754004
3.65281653
2.555431469
2.071196664
2.616264183
2.978540801
2.315602606
2.377511709
2.536669486
2.172848446
3.050717264
2.566608626
2.89404237
3.52565511
2.196321711
2.901405344
2.106872983
2.345806527
2.102596949
4.576659059
5.075361147
0.6222934897
21.38014823
4.158020475
3.498500383
3.601101388
2.841273548
3.178552062
4.900889576
4.254571579
3.455094898
2.453201474
5.840754775
2.140034893
2.730580479
2.516250999
4.583069837
3.096579542
2.63849443
2.248599088
2.286171942
2.445596307
3.652165892
2.189121321
2.175411933
3.014656308
2.171847306
2.340416248
5.461844415
2.185368978
2.174259702
2.563182181
3.555080611
2.958452104
2.248730668
2.453712232
2.560045554
2.249164191
1.802041685
1.869699466
2.29281914
3.147377801
3.187182225
0.7353398564
1.452490048
2.553066258
3.110792839
2.511923434
8.742616492
3.381363919
4.700291978
4.605292872
2.323935355
2.084432598
2.536571743
1.988788704
3.470228885
2.440830548
1.755466561
2.387341585
2.036199254
2.886770502
1.769035744
1.75627534
1.866513754
2.529356827
1.812130248
1.527821378
2.090971572
2.260097967
2.524862436
1.764479914
1.500758483
2.110669561
1.994071446
3.011895143
2.792439964
2.379767427
2.647708558
2.783910186
2.500605197
2.076480864
3.022791476
3.19210776
3.365752313
0.661368672
1.088285027
19.48379026
3.217726529
4.48099226
3.82521338
1.926001422
3.681735415
5.238171218
3.209430652
4.040697876
8.914364499
3.124985686
4.510988928
2.624573905
2.715496395
2.626005026
2.078589139
1.952642582
1.997932793
2.17241453
1.68213093
1.753410381
2.318718584
1.720270754
1.856539361
1.931660992
2.268776942
2.281881061
1.868370732
1.791589012
3.465520631
2.19829564
2.729610318
2.869626186
2.273085948
2.520523993
1.889420726
1.823030364
2.626924174
2.2236097
2.702576438
0.463595169
3.509011542
1.400012093
2.764779558
3.943948861
3.397271422
3.543081788
3.907707612
3.156866615
4.19684683
4.840221687
2.159852293
3.028032801
2.793754967
3.707029459
3.457882387
3.347314031
4.287095628
2.386686157
2.548939652
2.523658357
2.340914371
1.824781565
1.944142526
2.929051251
2.593741658
2.823451197
2.243386716
2.076158219
2.95852531
1.650428143
2.884798085
2.406221451
2.606287523
2.700810277
1.821868682
2.510534501
2.559679937
2.910416081
2.918381189
3.348327062
4.513849633
0.5511424122
22.08510492
4.059972494
21.24507865
21.60064158
12.87382265
2.275936522
2.362975872
3.050398301
4.313887376
3.128969219
2.755518041
2.530501944
3.273675975
4.388158661
4.756646642
2.451660891
2.889363111
3.029997018
2.293584934
2.797929007
1.678448371
1.816265186
2.510509172
1.949322077
1.832841084
2.917756337
2.271391366
3.548694413
3.122159223
2.132620969
2.312562328
2.825632014
2.712327723
2.335370379
3.278656885
3.379253741
2.36424598
2.52732552
2.034536696
2.534951027
6.93804325
0.3084923559
2.601092648
22.13574868
15.51129335
20.97282081
4.916724666
1.799543299
2.54496361
3.365929505
2.438750412
3.224615271
4.165778504
5.155957583
3.079807927
3.913879706
2.421910805
1.85888024
2.274497221
2.862349292
2.152090721
3.676250484
2.554944617
2.117124369
2.867043473
2.010918428
2.502058299
2.348199587
3.427750063
2.579137883
2.593410452
2.402707355
2.710169405
3.101358132
3.517673535
2.795455058
3.5681013
1.956430064
1.78705036
2.207523596
2.543343079
2.968147796
3.641935949
0.4237002991
1.28935063
1.452778742
2.250574644
1.941300398
2.194137767
3.24203401
2.965763907
2.572121897
3.47078322
3.523152734
3.059969568
4.663716786
2.578906067
3.34696318
2.602806215
2.544143618
3.061414159
2.345416523
2.270702503
2.684096718
1.957819444
3.069631345
3.107816562
1.938650369
1.681473113
2.407673154
2.039140509
2.487667673
1.982765393
3.377824949
2.282134349
1.93647947
2.721259223
2.107761277
4.510563492
1.920202596
2.043195379
2.43741795
1.895415299
3.129719793
5.45161414
0.4579248333
20.9179235
2.794739957
4.422597384
1.458862867
1.931925495
3.914703254
2.644420136
2.24546908
2.4929233
2.960051772
1.924465792
2.75684936
2.750491941
2.953749747
1.923807986
2.843139104
2.228774246
1.81671315
1.895919077
1.816747191
2.903468748
1.950932677
3.418686807
2.594708723
3.696087923
2.419699483
2.430194069
2.360882601
2.299866224
2.520343718
2.338367456
3.558829949
2.686742153
3.20343943
2.465822184
1.943961739
1.869068065
2.608022335
2.009260885
2.258476061
3.090007549
0.4199062277
22.143754
20.2930578
3.042243941
1.93842638
2.142650187
6.361383899
2.516342435
1.818499248
2.108615928
2.271789492
3.037118992
2.943690268
5.073472277
2.696453877
2.405054404
2.816953972
2.81257659
3.518301342
2.284348461
2.236066128
1.636500156
1.994256612
2.209284996
2.424781786
2.665928987
2.614722221
2.188225493
2.772111684
2.476433381
2.092240336
3.12015755
2.300605896
2.724588784
2.451556029
3.222945151
2.246760573
2.559107833
2.441541831
2.794742231
2.526514297
5.637685652
0.3185569279
1.884101087
2.526872782
2.878474468
3.187518491
1.757347672
11.02198237
2.384655154
1.956201321
2.426235368
2.487165437
1.769479342
2.352139786
3.086829193
3.996350344
3.140752837
2.802392899
2.976001258
1.90676532
2.120477249
2.526881187
2.001775211
2.334124787
3.136963867
3.127566291
3.055491786
2.263161598
2.611675259
1.658305017
2.489405313
2.004773592
2.260031841
1.889554603
2.58722847
2.545374573
2.277282737
2.43451686
1.862708019
2.111905823
2.382773696
2.996725754
5.871563386
0.3297924726
22.44248376
23.50984038
8.839050859
3.76220921
2.629558874
5.063726355
3.457602807
2.649696823
3.243669138
6.765361083
1.896374563
2.498199271
2.794126188
5.492314564
5.167876885
2.706230651
3.217424241
2.582125906
2.139391007
2.784594995
5.107077892
2.245107738
2.648953899
2.490352272
2.895858595
2.865503696
2.235849059
1.766876897
1.896880654
2.337294158
2.368994627
1.990578734
2.16471412
2.343163084
2.206207049
1.958227069
2.650502233
2.408219373
2.655355884
2.314911715
5.698679305
0.3469866502
1.422509794
1.875965115
2.160063877
1.648406199
1.527080125
2.60667742
1.551980465
2.630075978
2.005783912
2.876750385
2.069335184
3.679548892
1.88181432
2.298826222
4.453065249
3.582770979
2.720407716
3.341238093
3.613554514
2.759222596
2.459181279
3.122367072
1.895322876
1.696750475
2.036915404
2.081094673
1.759305965
1.762055433
2.200280102
2.042663101
1.98396176
2.320393568
2.556874421
3.297924335
1.784224904
2.081781151
2.851357479
2.685235585
3.121785593
2.621526083
3.910083807
0.5742567632
2.91490947
1.887788609
1.794462428
2.329524852
2.430023006
1.798725698
3.054604588
2.247364247
1.953961193
2.444633539
2.53427325
3.328800769
2.859768758
2.55203682
2.904941824
4.505044428
2.570634796
2.140956371
2.30685498
3.217218984
2.538085766
2.334353333
2.040678311
2.17236157
2.133905916
3.393835581
2.599572861
2.500946198
1.789939606
1.894533501
2.018694186
2.686804455
2.700513634
1.93814977
1.939884885
1.889170587
1.754921518
1.887447205
3.330734608
2.663159802
4.901086432
0.3831259188
22.32688027
20.84712006
5.451479466
1.98956541
2.270782128
2.740571725
1.846530084
2.021339727
1.841865128
2.254379137
3.236325476
2.952624648
2.335772
2.878225487
2.948923755
1.851914015
2.365847492
2.481198857
1.96715461
2.362154647
2.248552334
3.080680589
2.536799052
2.744463442
2.712717948
1.907748573
2.122878265
2.621446401
2.031164833
2.316112419
2.690294729
2.162390889
2.682447562
1.589225331
2.776018552
1.941855719
2.391208221
2.612625305
2.855256871
2.737863422
3.014307652
0.4752335091
22.41951849
21.39533551
7.351437513
2.836510175
21.08872992
3.680457984
1.915317775
2.364890587
2.009488807
6.311935701
3.227337894
1.855200768
3.30091874
3.264153621
2.709199011
3.968790567
2.415015873
1.699227754
2.424237802
2.639199945
2.995300975
2.523181951
2.212033324
2.117678322
2.645085209
1.905017357
2.501403774
2.142277089
2.122214844
2.218513952
2.49138154
2.372997563
2.284559027
1.663917667
1.940320405
1.985981864
2.644887234
2.925250541
2.283034491
3.209038419
6.000077127
0.5076735759
2.294820968
7.437708724
20.11269473
2.881812209
15.87039412
2.724692088
3.133464828
2.132412787
2.466089344
3.241532347
2.79269181
3.09045244
3.209880597
2.602751106
2.335956256
2.821973972
2.693738161
1.498016107
1.56530598
2.22181581
2.308027088
2.466062523
1.651383682
2.460920552
1.633277379
2.182611424
2.528306878
2.891963109
3.03474587
2.736981752
2.982504692
2.759184284
2.775104909
2.324785705
2.000095276
1.753769149
2.18604587
2.049177006
2.746945309
2.80565791
6.972779733
0.4620956887
26.02455688
2.232899786
21.79381525
3.596244435
2.663801043
2.023431133
5.152947511
3.107803454
2.639465026
2.249143152
3.360302985
3.362132885
2.626681625
1.934121212
2.772946976
3.025730814
2.87083593
2.303176558
1.943587601
2.641151176
2.419543906
2.899729739
1.892269724
2.464716377
2.359416351
1.770781161
2.191622121
2.139958115
1.989309144
2.214580822
2.025240483
2.53665614
2.386701832
2.103948271
1.933798822
1.607196192
2.163107654
2.642339735
3.343413963
3.207603699
5.956524779
0.6115427414
3.985966851
3.175095042
3.273327764
2.088288496
3.383627519
2.788778933
3.568959545
4.365431152
1.867124475
1.542241446
2.831154925
2.66249166
2.459681184
2.8425622
2.127315356
2.180336909
1.860799583
4.795263578
1.981768775
2.138107381
2.2632886
2.094326636
1.630846516
1.648233829
1.670447652
1.482703282
1.564837989
2.114991969
2.135143799
2.345267798
2.481087934
2.537560054
1.918860873
2.587942458
3.343855939
2.192915549
2.444578532
2.227116677
2.790747842
2.857866071
3.268049183
0.4491315361
21.99051387
2.951072164
2.705890189
3.534529469
5.610487906
3.492319049
2.584620404
2.144492248
2.119693185
3.243482767
2.125973725
3.14567834
1.425498725
2.385707295
2.710608647
1.549999885
1.824895877
2.223724001
1.977188268
1.420551138
1.652777038
1.878419439
1.800311471
2.019531311
2.279828545
1.810737108
1.74708644
1.746214648
2.101574337
1.958937262
2.137218177
1.961910731
2.253023683
2.274207604
2.125561498
2.439896396
1.871748704
2.390041706
3.225717423
2.445678431
3.333757053
0.4621833148
21.66900967
4.15359308
2.87697793
3.038211716
4.214171002
3.079796059
3.354915588
4.596725312
4.055293273
3.25143447
2.51565468
2.147393203
2.146608959
1.608549723
2.065028386
2.370869598
2.026524497
2.756168196
2.777109264
2.274018135
2.379214194
1.920783585
1.89843483
2.088114861
1.818354289
1.774344483
2.370212238
3.220605375
2.451898735
2.083138169
2.130809118
1.995600602
1.835729515
2.311691081
1.724938508
1.992243656
1.676830591
2.569487887
1.908480467
2.659656855
4.383043609
0.6350684274
6.966099993
2.343774486
22.82943947
3.284374377
2.5921571
3.186515354
3.063412578
4.046440838
2.621975617
3.280021445
3.354104529
3.563266185
2.031192121
3.566211134
1.831382811
1.798952157
1.723745545
2.234406469
3.19241765
3.102960156
2.975867464
2.090476181
2.952169922
1.749522713
2.968234228
2.333801736
2.724940923
3.460396008
2.411247928
2.341617822
1.812066666
1.973164848
2.39958091
1.991561667
2.270463645
1.926365134
1.872547594
2.585422095
2.543203433
3.350427531
5.091489376
0.3066326162
1.010172278
20.36958421
17.76673136
2.691648382
5.144811308
4.656684767
4.098822746
3.882643978
2.312850911
2.075680597
2.588884203
2.02946194
2.163848842
2.389405114
2.31604732
1.976643307
1.797597177
1.77127238
3.236000441
3.06481882
2.860513159
2.313841189
2.713823693
1.612601254
2.110628693
1.892833365
2.367001161
2.480401104
3.900438941
2.558362323
2.105635223
1.987768588
2.250682132
2.390995082
2.445947742
2.454898471
1.854295215
2.228294833
2.006655171
3.008409266
3.945101569
0.4383187725
20.17026054
21.02117679
3.356638529
9.249618925
5.355494765
2.90643326
6.372641209
4.603991296
2.507340443
2.473597719
2.728794611
2.329705407
3.340856188
2.105656897
1.805265434
2.55035957
2.202402469
2.866527742
1.915826398
3.397966779
2.898276385
2.629285673
2.240925609
2.239867275
1.95759639
2.351272584
2.195066388
2.316495901
2.353155888
2.589349153
2.137593231
2.131089369
2.058940952
2.404384655
2.497895792
2.836263958
2.218221577
3.184469648
3.999733534
2.784526818
4.165326558
0.4596306849
20.01318754
2.852315217
19.215754
3.189011043
2.247733867
2.250835738
2.502208372
3.712790593
2.753934567
4.579466026
3.794585057
2.163534121
1.972516782
1.857206748
1.716486406
2.278296211
1.857165068
2.646161024
2.006590703
2.721565979
3.506653317
2.039064671
2.159675297
2.220911692
2.45098575
2.11835379
2.023646546
2.233815402
2.225322931
2.288783074
2.659909555
1.967761222
2.243584733
2.114068222
2.678267389
3.772213258
2.821200893
2.495040251
2.708965099
4.19228809
2.347743124
0.5865781813
2.668458159
1.256280562
1.343057946
2.984869262
2.863958064
5.551664051
4.438219649
4.362366779
5.231597144
4.046641994
2.636023128
3.434754833
2.263547749
2.462913877
2.52379156
1.889084473
1.963550212
2.075716536
1.71578199
1.955510171
2.674505519
2.581964933
2.526774693
1.897028078
2.702489874
2.270923608
2.351154307
1.864684242
2.972622203
2.098226299
2.203987281
2.399739175
2.138282611
2.376748948
2.280626522
2.30567389
2.67254046
2.502081658
2.97176263
4.645744583
2.756206555
0.1669837418
1.21503648
2.649009931
1.346514986
1.675066919
1.578812824
2.564315554
3.176516898
3.288875274
5.171026078
3.09844222
2.372699968
7.428957447
2.372766831
2.002819172
1.909176141
1.614888024
1.681899551
2.207009343
1.91443588
1.700369144
2.254754307
2.831076397
3.093511308
2.479639278
3.853714794
2.449113624
2.190805678
1.964450518
2.270706516
2.708501437
2.602387828
2.621868849
2.499588776
1.966566944
2.8469171
2.103504588
2.903758689
2.220175906
2.868845
3.086940201
4.209355335
0.3926213931
2.259421522
1.251094053
1.671893973
5.638190932
4.699873035
2.35638025
2.746907583
2.418530072
3.00358353
2.7473651
2.342515242
2.599787518
2.100552876
1.952525994
3.260398404
2.265177377
1.564669678
2.560488428
1.979486427
2.175095252
2.880488283
2.623057231
2.239042905
2.0112101
2.263458116
2.02185126
2.817849051
2.110492457
2.18397234
2.474330504
2.824387181
2.284578255
3.429882018
3.130762648
2.200687477
2.568171709
2.61197766
2.655571176
3.311574716
3.033349739
2.720387375
0.4022304275
2.713894615
2.599997876
2.304139764
6.568135757
3.645318597
7.241890814
2.925416594
2.63651055
9.140158193
2.910997235
3.081535968
2.819913308
3.332779959
2.490608528
4.209038095
3.082617717
2.920652508
1.923166801
2.623231464
1.983915797
2.303270857
2.455393793
1.560293341
2.241855717
2.447762719
2.263630555
2.319656827
2.798882635
2.771108953
2.377258908
2.446991103
2.943716808
2.046278805
2.182835624
1.889735716
1.759097799
1.5908602
1.700314683
1.856793602
2.312307161
2.893088752
0.4209784624
2.69150245
2.724790263
18.38343622
17.83697054
3.91925721
2.041097066
7.465688501
2.257130358
2.368202345
4.038928438
3.612684749
4.199429265
2.120192605
2.687045895
2.592895668
1.882843306
3.234480371
1.793917075
2.158816516
1.451863905
2.169468167
1.949646754
2.396407424
1.753352344
2.859205069
2.012435243
2.241820164
1.96895359
2.448566272
2.18358798
1.943819087
2.077724429
2.291595898
2.344832681
1.84820616
2.359911036
2.340381175
1.961407884
2.682196904
2.345370803
4.050003537
0.4172992289
1.771363298
17.70966287
17.53368314
17.77170387
3.266646148
3.066823213
2.561609813
3.137322114
5.561617523
3.566493668
5.853757593
4.175056258
6.191815471
3.144404066
2.938621883
2.831671348
2.788309076
2.944406646
2.07988256
1.636872849
1.85988578
1.967419674
1.936457389
1.778089365
2.161140553
3.075034137
3.448140791
2.024698289
2.945347906
2.262899574
1.861943543
2.286043795
2.094963041
2.560850663
2.111588782
2.272884023
2.3314092
2.707655474
2.096681721
2.782014288
3.85668266
0.4883573555
1.497385492
20.51811158
8.18100445
2.4305029
19.04458155
22.31578634
7.557434256
2.140932299
2.426710883
3.871780523
3.443655509
3.372599933
3.917064988
1.991956766
2.963982331
2.243314961
2.012169981
2.850053814
2.111944694
1.822958101
1.731163589
1.856828829
1.724720426
2.046781128
1.755714358
2.276028792
2.740656087
2.936286672
2.437187166
2.174309721
2.222608369
2.532642909
2.000263274
2.91415207
2.661868311
3.393969546
2.205142431
2.230797221
2.026345936
2.609166154
3.833223662
0.8817120699
5.39456576
18.21707686
2.612020912
4.087226821
3.797008895
2.146405447
2.861238023
2.20237382
4.592037604
2.760268222
3.796192082
4.793193286
2.923464125
2.182145336
2.795091472
2.396015055
2.480479099
4.072867308
2.371194985
2.060209006
2.118150492
1.771426423
1.947966186
2.289834402
1.975529933
1.842689572
2.054977932
1.813172532
2.390532841
2.5252764
2.357192266
2.196645689
2.313872391
1.868567312
2.37386223
2.835283601
2.357892659
2.660915736
2.309735974
2.764150675
4.008988132
0.4099448827
25.55660609
21.41255936
2.266187032
1.544320143
2.222272313
2.277750282
1.724148589
2.818291487
1.863215744
1.655672779
3.367941193
2.623238484
2.452491293
2.397188956
2.771712441
2.635827437
1.853721684
2.521848517
2.704728051
3.062796296
2.05204352
3.182079384
1.733216112
2.005186256
2.226509968
1.830978724
1.906896888
2.310383853
2.112700007
2.966475437
2.59583368
2.25338694
2.046536134
2.337923308
2.285879903
2.591318041
2.495201381
1.887681728
2.810012459
4.64719781
2.637184953
0.3320869733
22.7653765
20.38785312
7.544224315
6.092633798
10.8341013
2.51755395
2.206481741
2.556585435
2.116384222
1.83213213
2.238599692
2.578016933
1.951141173
2.36632301
2.386511243
4.118423073
2.180653128
2.023244939
2.098967449
2.494805625
1.816465928
2.028073022
2.237223102
2.241063508
2.254739082
2.074843952
2.658198661
1.710892386
2.370022967
2.202185508
2.556018486
3.65680265
3.158338318
2.319634548
2.212910166
2.090677699
2.183285764
2.30876009
2.206525946
2.546254696
3.59990781
0.4059614484
22.33315049
23.48009768
24.26420593
6.344841646
3.198110543
2.319706194
2.555003603
3.591400208
1.721875955
1.933380643
1.974160416
1.794958911
2.389139537
2.861250754
2.623466999
2.952469903
2.403769999
2.559393708
2.937183963
3.66759824
2.836707773
2.493351187
2.40401391
2.610935634
2.434483028
2.259960704
2.679607427
2.63356805
2.02418198
2.585060582
2.583649837
2.749183391
2.55774418
1.872542439
1.877275618
2.87519542
2.327842966
2.603888904
1.86987044
2.337757239
3.383275921
0.5069878954
23.37667947
21.72823182
2.221858721
2.47816026
3.758769811
3.210091637
2.138273118
2.329482798
2.649704864
2.410892418
4.090680468
3.446140813
2.237961103
3.174126727
1.784704102
2.334713494
2.671149519
2.676011784
2.140789251
3.093953526
2.898119997
1.942858741
1.845039635
2.272479117
2.334990955
2.452588481
2.240734503
2.327828471
1.757680235
2.626468036
1.94873348
2.011785991
2.451758798
3.194121361
1.795954705
2.304342954
2.374688168
2.724481661
2.022516328
2.498437012
2.68503856
0.5478608035
2.003533594
2.374599241
1.769847448
1.608250964
2.045909794
2.962827253
2.710897495
3.128275197
3.374071758
3.158685807
2.186431067
3.889747112
3.313540473
3.603909618
2.300961233
3.093477688
2.628496056
1.925592565
2.341696229
1.546965464
1.759316455
2.355024865
2.486414008
2.109234908
2.646435021
2.856029585
2.51290259
4.2566829
2.612193529
1.880254803
2.316938387
2.205360846
1.926270116
2.17884772
2.317226903
3.02276375
3.26012965
2.615263094
2.679313014
3.117278118
3.139597496
0.50443498
0.6452621175
1.05684499
1.083303368
1.640686869
1.899265095
1.31936626
2.979679093
3.77434966
3.480882369
2.590993664
1.689962594
2.22133024
3.310468509
2.852178883
2.021963885
2.915480499
2.315756141
1.731013975
1.56129224
2.072679037
3.404256575
3.571091516
2.302459334
2.269205224
2.032892707
2.00459386
2.593228102
3.417697091
3.073335304
2.440648645
2.089689662
1.710599237
2.250172034
2.522291137
2.517804923
2.728767733
3.391899553
3.317086598
2.85314483
4.208517222
3.451146879
0.4568216033
3.918802255
2.066922381
2.915606897
2.783281852
2.011268566
2.650249545
3.947946295
5.123842531
3.842779676
2.844047676
3.031779903
2.445592572
4.796657024
3.011009033
2.309641823
5.827179083
2.130757746
2.476500121
1.802413706
3.10791754
3.85539621
3.257185154
2.885997779
2.698996637
3.17072042
1.888128652
2.140249838
3.50712743
3.157177591
2.903570705
2.503850179
2.773287054
2.758927453
3.327620743
2.05664298
2.565487908
3.184996023
5.736707467
2.881070087
6.446025797
5.371050526
0.5728269939
1.281873552
0.8857171819
0.9355142372
1.253423547
1.589148651
2.475977909
2.093648755
3.862835806
2.151837868
2.52066427
2.095935107
2.702913935
2.407501197
2.652421891
3.167900709
4.78077826
3.421287067
5.124357666
3.298436209
3.469632634
7.290891449
5.085598217
3.188420932
6.023425433
4.188797304
3.414546128
3.683422576
4.097269357
3.89072226
3.956592826
3.333309351
3.569081117
3.10828479
3.854583191
3.394819703
4.332534898
6.352169608
4.421683559
5.307673217
5.009730927
4.036619499
0.804831924
0.4747949879
0.63991379
0.6689431013
0.7788136504
0.8834790118
0.8778480297
1.014294608
1.038296217
1.436975434
1.207304104
1.000638557
1.421305816
1.396909046
1.661579139
1.845444118
2.013634666
1.810752091
2.21517839
2.708271066
1.698020125
1.895680863
2.209765532
2.476449604
2.776015281
2.941110006
2.511804964
1.777183262
2.217154593
4.164941431
3.119697885
3.204644409
3.497928813
3.479522759
3.873931552
2.883807703
3.639957993
2.565486869
2.43968722
2.446001535
1.958741113
5.08434595
0.7532684163
0.3802929333
0.5846419912
0.5664636274
0.7741227224
0.6117252073
0.7348275878
0.5882783982
0.8544631748
1.001417884
0.9935324806
0.9096260325
0.8373774722
1.108098994
1.211433515
1.17629933
1.210293272
1.143593983
1.505828523
1.288220114
1.275705095
1.28864999
1.272051494
1.669859479
1.653238008
1.466211803
1.389647727
1.653236824
1.510376691
1.939599352
2.675147595
2.519258684
2.687855021
1.896429635
2.023071507
1.582353422
1.946705714
1.977132959
1.782051869
2.533587161
2.178461535
4.983227913
0.5683715214
0.3724156139
0.3333720736
0.5756277056
0.6730481289
0.5573986654
0.6968015234
0.7121578465
0.7327781691
0.8126279162
0.9480801029
0.7783480543
0.7244826018
0.8954030429
1.229646696
1.182769879
0.9502862789
1.112495907
1.158517543
1.166236586
1.244292079
1.318948888
1.384060268
1.337704334
1.578804603
1.414403004
1.476766143
1.315723367
1.66693919
1.851546029
1.856250749
1.860016409
1.678369087
1.730677985
1.672994818
1.885705112
1.692026814
2.130306505
1.599902704
1.421997493
2.0464287
2.790508917
0.5396747816
0.419117855
0.5982629263
0.5096347151
0.6325033268
0.602777845
0.5084238984
0.6156406538
0.5062226073
0.5892986333
0.5122820823
0.6052200664
0.6032221945
0.6533344923
0.8891494218
0.8679122207
0.8140442398
0.9058843023
1.098899348
1.186457171
1.138096023
1.215874806
1.252880577
1.298287481
1.321772057
1.438100018
1.564641286
1.615343711
1.30469783
1.420753174
1.878865927
1.70304034
1.674967262
1.876947149
1.816324972
1.774013899
2.070190143
1.623043072
1.565104387
1.552028729
1.971307435
2.937543796
0.7891326549
0.3268899255
0.2900989892
0.4961572712
0.5142453595
0.4689010723
0.494552029
0.4931829729
0.6066370534
0.6701921213
0.7453117316
0.6492689373
0.6211817506
0.6636657083
0.7746091219
0.7460589738
0.8396300352
0.9982650359
1.030973933
1.025248772
1.193802204
1.089386052
1.090493178
0.9146748977
1.18614264
1.743555934
1.864213292
1.486788394
1.455492325
1.370133475
1.77323485
1.708880669
1.663883481
2.042164062
1.954346177
1.582835635
1.64057391
1.709747235
2.055622715
1.774033674
2.093155644
2.814561014
0.8374247587
0.3186748542
0.2473743609
0.3524609179
0.3659755148
0.525662199
0.4781712097
0.4593837903
0.5808491732
0.5410073157
0.6176228745
0.7005558791
0.6693329801
0.5191686658
0.5915837304
0.6438193275
0.6707665209
0.8172054735
0.8565772084
0.7495175424
0.7962802724
0.8753839047
0.7512007702
0.6954480432
0.845316044
1.049524417
1.437995718
1.491023049
1.290054907
1.615973916
2.056378587
1.518257865
1.490578999
1.602911199
1.969237052
2.19647815
1.635983028
1.455811023
1.75235436
2.208983562
2.403578578
3.924757106
0.7415940759
0.2724667024
0.2504878521
0.3600265493
0.4182525117
0.4441454749
0.6130936283
0.6164475602
0.7142550785
0.745689667
0.6801917685
0.5639434201
0.6017549113
0.551248487
0.4742391629
0.3996464605
0.1704900234
0.5874875757
0.615615122
0.8649039985
1.017462916
1.323774046
1.065583169
1.843304668
1.517790908
1.642661216
1.636701066
1.50774691
1.927713018
2.419642006
2.012831852
1.850784751
1.839518748
3.880064727
0.6094465219
0.1874024789
0.2359883152
0.2498484786
0.3293784596
0.3093723998
0.3973381752
0.3399623365
0.5171838234
0.4850667093
0.5655552001
0.5170749861
0.4469316005
0.3248414133
0.1333389267
0.3951487095
0.7587040104
0.914590285
1.197353114
1.598859287
1.709288829
1.491362451
1.365590055
1.561239018
2.090508984
1.776970592
1.702368125
2.005488266
2.199525609
2.952187717
0.6869912729
0.2513567594
0.2622169301
0.2613335981
0.3188058789
0.3610251277
0.2558630824
0.330962069
0.4288753419
0.371312847
0.349408088
0.3459941143
0.1119862818
0.01038591265
0.01713078313
0.0202218518
0.01854593264
0.01726128807
0.02220788539
0.01702825218
0.01512380744
0.3982498874
0.6058614434
1.125905538
1.179289695
1.584341564
1.873981125
1.905668448
1.248348755
1.98835883
1.774775314
1.961238646
2.476401923
2.839370071
0.8730594177
0.3836129309
0.2613625547
0.354441886
0.2755697527
0.2766271106
0.262802384
0.2942599633
0.2850754817
0.2749141601
0.1592830882
0.01289192741
0.01976896277
0.04975754555
0.05728801978
0.07912592199
0.07481330925
0.0778208792
0.07773410074
0.05896284591
0.04366499977
0.02321555847
0.007765182495
0.5089738492
0.8499201965
1.279623995
2.676493824
1.74624402
2.629946396
2.262730256
1.701553666
2.094010503
2.339582928
2.758094489
0.8170023597
0.3887897027
0.2430075616
0.277781361
0.1647702882
0.19599775
0.2447025876
0.2213432421
0.2354365846
0.1608165763
0.008664892856
0.02782602735
0.04510744698
0.07358914334
0.118230248
0.1498038844
0.1726367211
0.1793672656
0.1799244949
0.1598219712
0.1485504241
0.1155440564
0.08135374963
0.0536958216
0.02120679251
0.01136306478
1.005425597
0.6593158736
1.05869487
2.269838414
1.377387267
1.7835934
2.592289013
1.159757879
1.68183083
1.723362562
0.9849790881
0.2710093875
0.2565974568
0.1482178343
0.2330481502
0.3073290382
0.2342030936
0.1770018149
0.1187764651
0.01657268208
0.03919372443
0.07552938624
0.1230654425
0.1693872188
0.2267217916
0.2705006859
0.3031080435
0.3216185853
0.3304562795
0.3014893408
0.2730065915
0.2278063046
0.1696730483
0.118318813
0.0670503562
0.03564624851
0.008519832542
0.8849461649
0.8286107247
1.019910606
3.611148448
2.229293278
2.067053041
1.487642969
1.531033876
2.263610068
0.9579090596
0.4900505645
0.2221216433
0.1565114183
0.1761982058
0.1240273699
0.08162917887
0.1174819359
0.05450268354
0.009415726436
0.038255847
0.08933668757
0.1521811142
0.2227552211
0.3048229799
0.3710740876
0.4239193894
0.4600770443
0.4965635407
0.5087227069
0.4702562564
0.4292281691
0.3666269398
0.2950001586
0.216415966
0.1453464622
0.08843783457
0.04449444586
0.01284990626
0.972207884
0.9205187825
2.249953957
1.385204683
1.356141848
1.754505535
1.998481985
2.152156417
3.208112252
0.9098373446
0.2593802403
0.1743126208
0.1771708708
0.1687820646
0.1301059027
0.1516402164
0.112548387
0.008733722966
0.03803345186
0.08421728867
0.1509941135
0.2484359173
0.3451437521
0.4553841957
0.5432893823
0.6057130197
0.6526158589
0.672803818
0.6818902772
0.6502938637
0.6020519213
0.5243438315
0.441062339
0.3359615315
0.2439151156
0.1553983733
0.08510900361
0.03238518351
0.007183700111
20.70012478
3.595851416
1.255833215
2.881924419
1.570447002
1.542946474
2.903191349
3.061135328
0.8029552154
0.268812298
0.1915067328
0.09793063905
0.1260352516
0.1284730416
0.1103280276
0.04112360226
0.02340323821
0.07554243036
0.1459909823
0.2454550897
0.364997023
0.4861488775
0.6033742176
0.6980469675
0.7454752846
0.7799667296
0.7880448746
0.7967930577
0.7800733885
0.73886476
0.6748089655
0.5919829466
0.4795704472
0.3493712201
0.2423656782
0.1415345318
0.07165703007
0.0211677875
0.5890301111
1.64039094
1.183651222
2.665365573
3.36625236
3.577619944
2.254979822
5.550101202
0.9973820628
0.2614367067
0.1920055491
0.04018552393
0.1269971266
0.1353263347
0.12288267
0.01069252046
0.04766162764
0.1197022586
0.2209361693
0.3389481945
0.4845191029
0.6261534501
0.724341309
0.7912855295
0.8070900531
0.8105928789
0.802849911
0.8109214769
0.8102108236
0.8077381639
0.7847319345
0.7168268162
0.6105136628
0.4798948037
0.348033017
0.212540752
0.1158067926
0.04875919348
0.01156128243
0.9028222948
2.287308873
1.16399945
2.280241056
1.826036551
1.807366687
4.789177131
0.8790440832
0.2559505381
0.03992536616
0.1109702333
0.1352220256
0.1627097835
0.1135384601
0.02479322882
0.08017601911
0.1705263774
0.3022629739
0.4483804182
0.5901418847
0.7286551497
0.800391848
0.8085684857
0.7712597052
0.7404312625
0.7146130712
0.7200089916
0.7404667173
0.778353025
0.8067575307
0.7898731468
0.7180203199
0.5900807446
0.4381429542
0.2842224835
0.1682172575
0.07358952503
0.02541078397
19.86121935
1.063188016
1.595685288
2.211631393
1.54772603