/*--------------------------------*- C++ -*----------------------------------*\
| =========                 |                                                 |
| \\      /  F ield         | OpenFOAM: The Open Source CFD Toolbox           |
|  \\    /   O peration     | Version:  v1706                                 |
|   \\  /    A nd           | Web:      www.OpenFOAM.com                      |
|    \\/     M anipulation  |                                                 |
\*---------------------------------------------------------------------------*/
FoamFile
{
    version     2.0;
    format      ascii;
    class       volScalarField;
    location    "3.996";
    object      Ma_O2;
}
// * * * * * * * * * * * * * * * * * * * * * * * * * * * * * * * * * * * * * //

dimensions      [0 0 0 0 0 0 0];


internalField   nonuniform List<scalar> 
50792
(
1.17854003
0.5666447685
0.5510908293
3.07594736
2.428925363
1.926509616
20.07394906
1.881831704
2.048919864
5.43658886
1.523843962
2.144375898
1.538540725
2.193251927
9.190647086
1.859962672
4.126048753
3.888540979
9.43736407
10.92816771
13.7701105
6.114528449
4.443578086
4.696075065
6.036278642
8.851178831
1.461019984
2.602783189
3.713070212
2.985051539
2.843834355
4.213087605
8.097515176
8.814755444
2.336799499
8.016367485
8.409306983
4.530611456
7.518306835
7.867909937
6.433430486
6.992449897
0.507637035
23.96959353
25.28381001
22.54659686
22.54139035
23.40419583
2.454797158
1.840219231
12.21870731
2.238487147
5.276008438
2.36156753
3.321133132
4.635579128
4.843585141
2.459224047
10.59644874
3.31023102
6.157566962
2.709194442
2.433485293
1.835988885
1.697373893
2.458412566
2.814544983
9.690641613
2.871782875
5.569602157
4.781560762
2.306390549
2.828437537
1.516479618
2.436603805
4.00186544
2.45830239
2.505598368
2.715796668
1.643916014
1.810432223
2.92612082
3.817130652
9.290704179
45.5532251
45.98843095
31.98250132
32.10897383
22.32934565
21.81616479
0.9066652392
3.032405939
24.11448447
1.674451762
5.869527089
4.652534344
3.240341408
4.530568969
3.466125439
7.279314774
5.137824913
1.743035324
2.419211776
3.995602843
3.069491542
2.339676702
3.236804
2.490418411
5.858204938
10.60002819
4.349245273
3.270713752
3.497799444
7.024650259
4.757376757
1.757645585
3.208476328
4.284079665
2.151492883
2.772871333
4.291734642
4.348562587
2.771310585
5.169352074
1.932068028
2.597291931
0.5337837623
36.25939076
24.05628913
25.98311971
25.28787789
24.55410685
22.89217342
23.56069964
2.132336296
4.381991374
1.665488675
1.02154447
2.501928653
4.240974059
3.241801452
12.52662549
1.33926673
3.613159707
2.402943577
1.54095424
1.779030403
1.996888066
7.073267636
3.494582443
6.1539277
6.995698748
2.548158743
2.079554223
3.155918487
4.638068317
1.919171117
1.665188289
1.515493896
2.778935856
2.657340139
4.809707339
4.330417563
6.817360042
2.243284988
2.736283104
4.565777104
7.866181525
0.5952796006
31.11160923
2.23453762
3.068033318
21.00143032
21.72269668
1.527706073
3.251588537
1.598728891
5.704642575
2.064123417
4.454150582
2.556650608
2.571909109
5.335512595
3.366176944
1.945333403
3.217286012
2.676017453
2.258316279
7.996578532
1.997090488
1.972976268
2.423181218
4.835108134
2.01430061
2.584484134
5.325667917
2.156766723
1.446606398
1.905122254
1.888797839
1.717335004
2.967603804
2.024751828
7.302554643
3.642296605
3.850092295
2.629594659
3.317475169
2.666650236
5.595111405
44.70616555
29.3031482
29.35998232
26.99578594
1.610638048
25.35786297
6.750901044
1.620945727
2.107775965
6.280228583
3.258508187
1.853913663
7.281052964
2.424504957
3.262527322
2.190862869
4.455804257
8.19567484
2.8822165
2.61089885
4.684376819
1.701982863
2.754061161
1.931994193
4.20342958
3.127561488
3.056472453
2.000565607
1.772499965
3.48556116
2.927166436
2.261443385
1.587647478
2.206066165
2.263864834
3.474641634
6.696122837
3.369187844
2.804623766
2.103569755
1.73447005
4.44553243
2.243516827
254.4037903
102.3634871
32.91574843
24.33706237
5.045337365
1.733403977
6.001334977
2.77346484
2.737882236
4.353967917
5.157993715
2.239979657
6.124882198
4.72672195
8.864392311
4.020085193
5.26639525
3.273235925
2.371908923
1.964268014
3.689319155
3.26235757
3.842216518
3.048890365
2.714720833
1.812429132
2.175234196
2.55127734
2.330075876
1.592552757
2.257437385
1.710040883
7.37269304
5.707556591
11.91087983
3.656904423
4.040334453
4.127187553
3.084247582
2.497794187
4.786190736
58.5456077
25.12924838
21.60576689
19.29729932
20.79772466
3.263584253
4.506635301
3.505358485
13.18721938
2.576752475
3.173095482
18.02334415
9.679377158
13.64948169
5.657751162
4.336437587
7.926379488
6.102726417
2.584984544
2.88224663
2.66516608
2.653864958
3.468469677
3.65270576
3.628078077
1.608144026
1.815992083
1.992462766
3.021208128
2.864486874
2.925162059
3.228050213
4.367620745
1.952291111
2.981921926
3.842937522
2.739021329
3.376402171
2.302534429
4.507678111
2.435959558
2.66267188
26.30284285
26.58099302
2.305100008
29.07969549
27.90552534
28.16465354
26.03710454
2.275541461
14.17119965
2.418156233
9.42757104
5.017703802
24.49870887
7.080469636
2.906549612
8.401787963
14.11422569
17.40454607
3.644867168
2.934730666
7.749202043
1.572437758
3.200535518
1.954450516
3.389132771
7.217690986
3.360091161
2.764970318
2.296131326
1.50699599
0.950939106
1.546203945
2.268804698
3.301899029
3.224612732
1.830252441
1.880165707
1.422185908
1.977307411
3.125324333
1.529742319
4.776844685
0.4357368222
39.06304744
1.179521538
31.47879621
25.40019321
24.07850573
2.871276184
8.355045907
26.40953486
2.754641515
3.491016893
2.300124796
3.107793505
2.780746562
1.58868085
10.90856322
3.30990083
16.8307389
3.054789965
2.445057645
1.965157599
1.715907888
2.679545812
1.992435494
8.134289577
7.113329492
3.202772614
3.02541391
2.020006338
1.163549625
4.841218746
2.166217033
5.863416473
1.301490293
3.27933425
3.727033049
3.561743358
2.001848464
1.573066599
3.259359763
2.135534295
4.659833952
0.3127725355
0
0.7011132491
30.58806475
25.86369818
23.93046431
8.083440065
3.802916475
1.757846682
14.99378587
2.232320251
19.85099224
1.805036099
2.729785945
1.5552075
3.309589938
2.175322275
4.53828633
4.902267421
3.382367988
6.909325914
2.103846184
2.207051178
2.354037367
7.250554322
5.633443239
3.847472154
2.275966959
1.919365958
1.626869832
2.315998195
3.048511027
2.630782743
2.189516585
1.411223566
2.290540589
4.164742817
1.861847372
1.669588727
2.717510463
2.307130068
5.234533375
2.66486081
1.393736475
4.412405077
29.34330416
23.65890579
22.9454139
3.188196769
5.869928531
17.40670426
22.09241638
15.7420803
2.745655863
4.07617376
1.814992417
2.951681588
20.65604653
8.997240536
2.966636468
2.621799342
3.547664197
3.058312686
4.180140406
3.622390355
2.978570143
5.313450469
2.050665048
2.557059636
1.818687812
2.313335987
1.49754423
1.636360809
2.026379277
1.868461011
2.743261418
3.060772971
2.387871854
2.498241794
2.647303732
3.062588355
2.483880119
4.82242395
4.551120798
0.7872412032
1.024014188
20.63843833
20.66772203
22.16144593
2.942119144
1.227243083
11.76460993
4.272159468
2.44858136
5.447380289
9.934675089
4.588791903
5.869088898
2.552328975
9.208390848
5.882722131
3.328036196
1.978307075
1.856345554
2.473052329
2.535361835
1.972559421
3.518436465
3.273030041
7.026084351
3.075244731
2.949577829
2.808757012
2.921426456
2.984068915
2.604370779
2.199547571
2.664922183
2.843991229
2.619470199
2.167793935
1.950141759
2.75510267
1.819530968
3.021628951
3.330097288
0.5422149851
0.771711719
19.05325994
18.47319147
18.80427048
19.23731151
1.596876273
1.434904107
1.229039659
18.64363024
2.836767737
1.743245171
20.07652929
2.578215281
5.595866049
2.034623622
6.659832744
3.77083441
1.825278952
3.000403184
7.89364146
2.729337466
1.552277608
2.158802524
6.980682285
2.364238425
2.607954646
2.741897555
1.972970209
2.405816835
2.511715096
1.775081929
1.529075241
4.26942325
1.893349868
1.481361494
1.484842736
1.733658827
1.605032342
2.136520554
2.559551663
4.635376416
0.229418859
26.66678447
26.48953957
22.94273817
23.84836673
13.19087844
2.951565814
1.421220248
26.08143289
4.012094519
2.571989355
3.41983095
13.13301311
2.554934898
4.918326674
2.568334617
5.624862379
2.960750026
1.892893945
2.550259496
7.660595772
2.437207123
1.889607895
1.567988398
1.918460791
1.46720856
2.193026915
2.318139169
1.987224628
2.393086839
3.616511524
2.778235337
1.266942206
1.488814671
1.319890438
2.36907
1.774660998
1.842045373
1.870594372
1.825357892
3.023671843
6.110245795
0.3967975939
30.10850939
27.30863074
27.47513915
4.580553175
3.512757876
3.536376841
3.818653838
4.188124657
2.649320272
3.015253671
4.257766088
11.96384803
2.077500612
2.859496391
2.019199537
5.099508726
2.02636894
2.93971379
1.634799789
3.926874441
1.955323718
2.143941752
1.531929621
2.553658494
2.402552502
2.066960527
2.156169672
2.311733525
1.89894423
3.264698744
2.832320532
2.51854981
1.702909509
5.178865598
3.30760845
2.358814437
4.891396865
1.945627742
2.450322951
2.523843947
3.862712831
0.5805610919
35.48580448
28.42873447
28.26472728
27.5194998
25.95477665
3.514690555
10.84742174
3.447138133
1.78027928
8.239786597
7.974760871
6.236350496
2.45623545
1.505089195
2.04789081
1.932146722
2.370783427
1.577433771
2.102688344
5.970646739
2.622727273
3.094279379
2.061296495
2.221435129
3.907388965
2.378514878
2.705318653
2.174469242
3.186467886
3.58597931
3.032634479
2.220461413
2.329261767
5.828477357
2.419151469
3.5835532
3.37855722
2.320175769
1.785939726
2.182934735
5.021648965
0.7208588766
26.85093796
21.80672687
23.9010371
24.80052103
3.173250295
24.46533631
5.139517621
2.029915696
8.81068295
3.680643059
3.613137651
2.187030904
3.23345969
11.98419949
1.824930261
2.677158251
1.650107435
1.93960661
3.283100397
4.298162378
2.165099451
1.950265746
1.678264214
1.390320896
2.411351725
1.285290785
2.876268029
1.740268485
2.426340345
1.890414956
2.359549478
5.802682327
8.172330091
3.688535448
1.997147261
1.702314934
6.434451731
5.021702099
1.411469912
2.438975001
11.86826239
0.8728466803
34.66664891
30.13524121
3.559211894
26.16496334
2.599431433
1.399401001
5.182587124
11.37324976
4.034532011
2.844959165
3.331401297
1.714274207
1.802292836
3.49038567
4.182954109
1.945228245
1.540173862
1.934087568
2.533483273
2.639479332
3.013199438
1.977565108
1.55398423
1.887528575
7.774745604
2.882931161
2.534306753
2.610053879
2.017253296
1.952532355
1.57681864
2.415086952
3.133089164
2.645304383
2.679460274
2.251341815
2.915755303
4.418853239
2.062830383
2.7124991
7.421813592
2.825506682
24.98732709
23.36894194
2.00761144
3.20292796
2.014275924
2.594261951
22.4542096
14.19944726
1.983715316
2.889636014
4.156340397
2.631250339
2.64607171
3.371056132
2.978150286
3.947526452
2.203306487
2.536322006
1.69518527
2.458979928
3.041098969
1.485065984
1.174987741
2.831654956
4.790006079
3.635545111
1.682558926
1.992256759
1.918392067
1.73724937
2.215097505
2.053909319
2.084348313
2.815678138
4.910138394
2.633882374
2.24685937
3.148358705
4.427328019
2.903434765
4.905099553
0.5184021279
22.66948102
2.191630508
21.67644266
1.237264079
1.961778138
6.139335297
2.87269874
3.30024
22.08071647
22.46726073
4.142219945
4.996337119
7.624243698
6.573876026
2.092891614
6.086873866
3.422714806
2.643237466
2.090026445
2.823144319
2.24543874
1.645712422
4.420739277
1.781256929
2.719830735
2.516225093
3.403079516
1.88917973
1.953268761
1.740713296
2.839020793
2.721407604
2.526433451
2.777831856
2.142546768
4.982607763
2.937774155
6.442990532
4.917658338
2.016699577
3.117717161
0.8236765554
23.36697148
0.6965738709
3.320883986
1.545829565
0.9465654772
1.240341565
5.244531334
2.613107359
2.472489813
3.039366831
22.13044502
9.678560753
12.46768401
2.507711949
3.973092441
2.345447619
1.621258738
2.95159971
1.696574733
3.457358452
3.176439419
2.292793306
1.20876784
4.450008807
2.55399585
2.952470711
1.907841169
1.927457792
3.198549671
2.278544
1.851504838
1.493139651
1.515184084
2.040242126
1.361898271
1.828298104
2.010712599
1.891373234
2.20715691
2.062873732
4.805276965
52940824.24
41.04917959
20.04876445
21.22202014
0.9584262964
1.89268224
2.988535
1.558014348
3.965237646
4.390507229
1.450368518
6.670050394
2.941755772
2.808064323
2.036086357
4.926306013
9.494203308
2.27724491
1.94565285
8.043823961
5.92537732
2.693761204
2.072938815
2.002199116
2.626865007
2.778230095
2.496610148
2.393974401
5.239430246
4.926029777
2.060523559
1.692867781
1.616756292
2.009149657
1.500564594
4.177372938
1.969089154
2.570333926
1.816074704
5.743986346
2.878499028
3.999882267
0.4184812466
18.57806572
2.126474056
1.173622115
6.456039625
23.48420684
23.46175263
4.99388999
1.361790438
2.664934287
5.63844526
2.482313301
4.315366822
2.987534655
1.780117786
14.35948382
8.681100895
1.340132963
5.973391988
3.937692857
5.593351169
3.848977714
3.584545518
8.541468289
2.498007071
1.614437564
1.519876802
2.552013268
4.042790278
2.85960152
4.99229038
1.702828032
1.431091067
1.16350716
2.939574575
5.359345034
2.306537743
1.907493482
1.728379937
2.645945239
2.248018081
4.857448123
1.682494081
0.3772109644
0.721835186
20.31191931
20.96213705
23.40164693
21.7962225
2.78212344
2.17556364
3.627375859
1.959792192
4.309707468
2.299051199
1.702532764
2.720231684
6.229446192
1.799432126
2.545355883
3.24901156
4.242720899
4.86016067
2.642794183
2.737922576
5.988410994
2.723455572
2.256039281
2.173318565
2.588899123
1.660077515
4.124302576
1.452095621
1.880599225
4.481872849
1.413280623
1.402372378
1.581765284
2.626156387
2.340688629
2.38203652
1.886693675
2.100532372
3.70871557
1.246687076
1.282330418
21.59802013
21.25267687
21.63089372
22.14434601
1.29530527
22.31809081
1.689045622
5.760323468
23.1281508
2.462518967
1.923484135
1.75390467
1.629412048
2.158382152
1.258948037
4.07832997
4.925826645
6.324434137
2.413456878
4.715810866
1.948848509
3.452543302
4.25427602
2.230121817
1.698023346
1.581573987
2.849063105
2.581942636
1.646309955
3.08905876
2.802755861
2.734979123
1.528821808
1.640596633
4.790742366
2.826161829
2.504331838
1.784569515
2.062060009
4.476587594
0.4567212463
32.88533306
31.40056005
23.17053375
21.44205774
6.229089777
9.328316558
25.11542892
23.83577622
7.662913792
2.21238591
3.796538514
2.258763793
2.14198061
2.513240647
4.740216103
2.921370664
2.416637142
2.489941932
1.725022961
1.739051575
4.853571303
4.403823629
7.518377443
6.551170465
2.095319727
1.87054997
2.980889913
4.120163873
1.924108781
2.196877819
2.520557302
2.060056053
2.501256635
2.291348308
1.941906239
2.862849692
1.306277581
5.767363144
3.311539714
3.674866232
5.465002571
0.4939188117
25.07787322
18.64509022
21.21193875
20.96380372
12.70281162
19.23334096
23.01741242
20.41295905
20.90355636
8.615777822
5.566445941
3.117333354
2.355465199
4.320154309
4.565542996
5.727523329
4.168016267
3.406785899
3.161807337
2.080427172
2.565240039
2.011508086
6.392911433
3.309672819
2.896292383
1.817468973
1.914209683
1.738916006
1.907578031
2.693399266
2.704908927
5.188494627
1.443012796
3.107404722
1.714801144
2.288278985
4.430380573
2.636365133
2.282851926
4.565310073
5.267246664
0.793491958
1.430920748
22.29659411
18.72058385
17.78514789
24.36086013
13.85465932
3.544695459
2.327852638
3.116047973
9.914969763
6.284626129
1.683164488
3.150630292
4.617100489
1.881129924
2.662327472
4.795466477
1.740461622
1.383349127
1.715065088
2.343662518
2.637864449
1.483446522
1.618404849
1.83554992
1.596642225
1.589255613
1.933207935
2.348879741
2.693864463
1.461313929
3.036485882
2.78002591
5.76810639
2.668538212
3.596690097
3.95362028
2.858896139
1.7599064
2.866338642
7.052376082
0.3891255272
1.292452853
1.141326463
2.38021851
25.70213998
4.47488499
1.7060518
1.669850978
2.059799147
3.863474987
20.83071742
3.618304833
1.918992427
3.557184584
3.544293304
5.380597656
2.069251389
3.001548533
1.829394462
2.824441874
7.292184985
3.041988817
2.98427604
1.827731616
1.553186158
1.039058978
2.302263946
3.442928343
2.976193872
3.928184105
3.319312446
3.819847533
2.249723009
2.250301641
2.412538092
8.3082369
4.48468634
3.609314823
2.639457981
1.495828064
6.528671133
4.397642265
0.8647096917
0.7224330155
37.14164702
33.37387764
31.19027449
3.313510486
1.573046618
1.665479494
1.65996823
5.295097316
4.668691774
3.542758886
4.73053369
3.425404144
2.453759985
2.66285227
2.41541307
6.502577701
7.96303614
6.262419466
4.303875417
2.365276087
3.220223769
2.977800821
1.483995341
1.796280802
1.625861933
3.053937819
2.900907735
3.316177202
1.461719527
4.527143107
8.095653873
2.235725485
2.093997604
6.017020822
2.564144678
2.33150334
1.558267041
2.116524375
3.068793998
6.036787611
0.4777175391
0.8176398647
4.812094966
22.47502124
21.10972763
2.557901946
5.115117754
2.821099535
4.171969407
1.64900718
1.651741643
1.650914749
17.40691464
13.96917232
1.809646552
1.29137464
11.49364066
6.494738755
3.640248373
4.484849297
2.363944333
2.54201605
1.425048415
1.299207184
2.049254928
1.615365749
2.140337591
1.42863199
3.635061775
2.434745623
2.569566642
3.125386204
2.935266221
1.78848153
5.587870378
2.706064554
2.224250015
1.616856331
1.65458002
1.623844523
2.829599292
2.117581764
0.7321953205
29.83724997
1.158216333
21.73952204
21.32967279
1.745608118
21.97968006
17.72027183
4.021424272
1.397651811
1.76931989
2.134862169
3.310038963
3.596731469
2.855462261
6.431736944
11.86139287
2.768759318
2.873881291
2.600563695
2.528908927
2.65238833
1.376175148
1.917563773
2.341548251
9.780517884
12.43885769
2.842675955
1.942649293
2.923464217
3.442599503
1.856167027
1.603452547
2.678536777
2.392074992
2.179731563
1.853147472
1.68248164
2.252760928
3.504620717
2.567756945
4.748816681
1.478403191
30.95039332
0.6726747023
24.26362789
2.322745905
25.23826493
24.06526821
2.206462898
1.526639835
1.591896561
3.084526001
3.246483572
3.337201247
3.025178856
3.695979521
4.515311663
7.614137342
1.581067081
2.674503322
2.573726253
4.768840035
5.109706911
2.598845667
3.225807859
5.056802598
2.561444239
3.83851951
3.332600371
1.978229571
3.25630773
2.962107863
3.655907846
2.036072512
2.946480359
2.759314225
2.863969601
2.800554922
1.652900635
3.066007836
2.610381885
3.501156394
5.021841602
0.5715921097
23.78670567
1.333297799
18.48436092
2.310038777
21.05574503
5.292364238
3.231180881
2.716761791
1.29934266
2.832489514
3.292009785
2.31245131
1.750602231
1.705040785
1.479563642
2.191837622
1.625805262
2.041091343
4.486527304
6.867586115
4.147133857
2.270514972
3.910269875
3.778941158
2.496396432
3.267375118
4.119994629
4.609516101
1.813628817
2.941432994
1.948993837
2.134706548
2.190130374
5.936884363
6.264598293
2.241149343
1.498222545
2.205667296
3.529534113
2.068605066
4.885167261
0.5378661761
39.18423593
1.341114813
1.432973038
24.76601202
24.70903674
23.85581334
10.60012602
2.737245935
1.612685419
2.085732739
1.591534269
2.682613731
9.359174507
12.35075862
5.622022139
6.261559039
2.33964578
8.067877757
2.980471878
2.740440523
3.11553917
4.029668727
4.400872475
4.993900983
5.55843202
2.388308575
5.293048177
2.719846781
1.588336124
2.572796273
2.343555349
2.115470543
1.894602773
2.700013151
4.763839449
3.488858731
2.785366647
2.002624463
2.647897163
2.137812402
3.222581135
0.8187936563
69.13342778
37.12721108
28.36234439
26.19710034
12.96987834
6.552511771
10.14149357
1.878620963
7.252968528
2.265151745
1.564460016
2.860416862
4.482274089
5.257338947
7.177192978
3.644633026
2.071753962
1.739547705
4.07190025
7.149369151
5.547254624
10.93125298
2.708851909
2.322920018
5.376070347
4.835635282
2.470816353
2.47036732
1.935963842
4.152661681
2.026459626
2.588242194
5.621207784
1.952902078
1.657840147
2.081952801
1.998349524
1.853228836
2.230074546
2.470926471
4.615706933
0.3895988868
25.14900399
23.21237706
22.116047
22.00913444
1.891464121
22.66012032
10.86071511
1.774564292
2.005053451
1.615844733
1.518463356
7.428267238
2.288985496
3.22251206
8.329766277
2.040518777
7.893926272
1.718414899
2.300561044
2.731001864
1.639826853
2.623298971
1.93381675
3.17277074
2.458464241
1.423980663
2.796899643
5.487807081
2.570923858
3.140848257
2.676452208
3.138381106
1.710652995
1.530093069
1.726086309
3.218871789
4.06321683
2.289844215
3.696351083
4.272190628
6.658240974
1.350867934
79417711.38
31.15893353
31.35676253
20.92225779
20.91030563
1.815681541
23.22047928
2.009117804
2.370984095
2.416735457
4.529733115
4.530788347
5.967633974
3.515298129
1.980655218
4.467306939
3.441958702
3.021550229
4.918389305
2.135543492
10.59888747
19.94212498
2.234364278
2.133838564
3.073240658
1.591404145
3.461713508
3.90030419
2.80888719
2.684778505
1.678092235
1.644229966
1.931684762
2.237126906
1.778708262
2.91418336
3.137680988
3.356978655
3.063959465
4.127407426
3.323485303
0.4417352247
18.74182966
18.78345689
19.23242905
6.496025875
13.91526212
1.796774985
3.164822742
1.896820409
5.428482866
15.79437213
3.973116971
9.114243068
2.290982224
1.845162768
2.488558673
2.366336934
3.999343279
2.038997487
4.567379776
2.03348368
3.662276233
7.13544775
7.955679911
1.785238684
3.055196351
5.626856118
4.053180529
4.203476664
4.734982482
2.188090763
2.868067898
2.386551558
2.502564115
2.101148247
1.70820121
4.223265265
1.929088999
2.698767553
3.19330063
4.574890538
3.693205499
0.7299296295
23.13011068
24.2144923
22.88144898
22.50103399
2.739684893
6.415332081
14.76264075
15.33269693
20.24435358
9.659200896
6.619569813
2.371151405
2.614666891
1.734858877
4.560219317
2.439025758
3.683676679
2.415488369
5.936349086
3.321389555
3.07422777
4.704298119
2.437948738
2.065556577
1.586321155
2.025316958
2.364779969
4.376689315
4.957119011
3.218739972
2.559225674
9.173630822
10.80969301
1.753966258
2.378204717
1.82448234
1.821674632
3.337442556
2.413391731
4.510119188
18.21596503
73857264.63
31.41395785
31.43610042
39.45965823
1.34602739
3.323953361
1.889006376
2.154048964
24.59523258
2.430282346
1.651642284
5.110760347
2.033296435
3.62195788
15.96869657
6.985304131
10.09014838
21.39060545
6.962445725
7.819146179
4.151934348
4.319345361
1.73453938
2.598706884
1.939560747
1.770391547
10.67922623
21.28406127
11.35718949
5.115707076
17.49504066
6.393090692
6.64999989
9.31223638
4.543964517
5.829371252
2.811063163
1.448443319
8.875058615
6.631005345
6.319674589
6.221350715
2.028248692
2.087851936
3.015009616
0.5937787357
0.5857262838
1.157835621
1.385874014
1.218352905
0.7583747408
0.8157718422
1.303006561
1.040652804
0.8948812998
2.134467957
1.437949426
1.425018775
1.389404534
2.137481591
2.134124574
1.946842542
1.87757254
4.06018693
2.416045028
2.240889095
2.643711713
1.789142769
1.364781032
1.916480853
3.637088349
6.021529295
3.698095084
3.698402086
2.867262822
3.376847706
3.094745141
3.967779264
3.87277502
3.219616149
4.823536101
3.449893996
5.140237583
5.345018768
0.512141543
0.5184310372
0.3600571107
0.6647864546
0.64613936
0.5322801853
0.4733577768
0.4187870743
0.5745087484
0.4128477782
0.8601453567
0.8519726179
0.6795315057
1.182820474
1.367039212
0.9653147267
0.9076526644
1.297768191
1.280060106
1.062755003
1.305957289
1.366967349
1.963929513
1.544951776
1.659004503
1.284488523
1.674526391
1.17019894
1.846152653
1.835534368
1.788890966
2.793692008
2.530550063
2.232343138
2.980763445
2.124194254
3.128395038
3.046130866
2.848961591
1.606893911
2.534614441
2.721976046
1.377440252
0.5780594146
0.3928112424
0.537183689
0.696701905
0.6375688643
0.4055859161
0.5989316022
0.6044650964
0.4439266591
0.5187943623
0.5912604881
0.5353382831
0.883596888
1.368036687
1.145137368
0.9745155772
1.103924604
1.28490453
1.305512315
1.338778061
1.203784644
1.233935603
1.135265114
1.255560122
1.710058674
1.989668136
1.732962945
1.538828634
1.842263474
1.680913805
2.641335822
2.668095189
1.972974391
1.751259433
1.496350481
1.662657321
2.028239076
2.478748641
1.994587038
2.177780833
2.539706097
0.8141837437
0.2514600457
0.6063493673
0.4813345325
0.4665896299
0.7994709327
0.8902208509
0.6720814067
0.4981683067
0.6522473806
0.9556916637
0.9513486967
0.8787321939
0.6480807709
0.8320686052
0.8144380822
0.9214693353
0.9281729381
1.493758441
1.239621135
1.578436543
1.251839409
1.2263185
1.130300746
2.195911644
1.167737801
2.281514904
2.088729729
1.744623756
1.939595972
1.579096012
1.750388918
1.809754063
2.54460147
2.510624199
2.270621746
2.206918356
2.231825009
3.402350621
1.779564317
1.87722895
4.110451688
0.6195747289
0.4468643444
0.07150041109
0.3239001952
0.1929805069
0.252246513
0.3860749895
0.8985488371
0.5412095293
0.5053238011
0.4286705203
0.650544554
0.7799227654
0.6098803775
0.7034152387
0.6296266205
0.7761004697
0.8316017581
1.459394643
1.607929108
1.368086816
1.26950213
1.576803329
1.115626378
2.186737671
1.57340651
1.098592202
1.550892384
1.736728565
2.051570544
1.432169071
1.920314799
4.015723011
2.086570603
3.330007712
2.695131727
1.355936746
1.415073976
1.659796588
1.642370763
1.817220836
3.651755328
1.05414886
0.4827220379
0.1901293166
0.1824056686
0.3535389912
0.7592424007
0.5149675142
0.7932271749
0.5362780922
0.6071635296
0.7001263829
0.5582524869
0.5070241106
0.5603186187
0.556764179
0.540162498
0.509124783
0.6546048073
0.7630794476
0.7484574451
1.129500891
1.074424832
0.9953881828
0.7048319789
0.7614325937
1.71106708
1.224384453
1.088427874
1.210420781
1.858071007
1.251094625
2.755479988
1.529446194
1.763044023
2.713093141
2.660885791
1.659187513
3.214674889
3.314887253
4.07999584
2.931699499
2.535089619
0.3395898182
0.3845245756
0.21096214
0.1754023558
0.4939825762
0.4210588727
0.3499103234
0.6560580214
0.4990679315
0.6062675569
0.553628057
0.5772471699
0.5474561758
0.6309383653
0.518210588
0.5050219234
0.1596409199
0.690171598
1.671614948
0.9557691977
1.024157379
0.5526844095
1.695785745
1.929890527
1.48742626
1.830923009
2.366984476
1.963012511
1.859388626
1.426114191
2.053442297
2.182230786
2.854589668
2.21989568
0.4476052249
0.2017777604
0.05529707768
0.3204825556
0.3371452809
0.4308094914
0.5607010179
0.4866178713
0.3839308422
0.2958105891
0.4013109901
0.4204557334
0.4028331102
0.3382413225
0.130146158
2.824177652
0.3994816769
0.5124122243
0.8690986627
0.9017761782
2.459980131
1.401867546
5.766623727
12.81322367
4.299596344
4.178484472
1.820566811
1.791217327
1.981411713
4.554073506
0.9344714155
0.2743827957
0.220059217
0.2654466704
0.3357541213
0.3255643337
0.2850351472
0.2096969125
0.3208446029
0.4392618248
0.3246456031
0.3025763776
0.09555948652
0.01176097643
0.007934728436
0.02765188215
0.02725944234
0.02224463185
0.02355468946
0.02424524245
0.01574380344
0.3441583107
0.4702475896
2.32298265
1.723953407
1.278319243
7.678165798
10.50224056
1.8042031
2.799460676
2.494903442
3.949189661
5.463927343
4.63086608
1.977115744
0.4533742869
0.2096270241
0.08787778413
0.3242089677
0.3023507721
0.368419388
0.2778362969
0.3851107716
0.2908748003
0.1974894044
0.00784738481
0.03461795788
0.05216863303
0.05614004869
0.08744307404
0.08804573754
0.09610433989
0.07305533048
0.07765099101
0.05399790002
0.02381000004
0.01406978624
0
0.5647908684
2.607088705
3.011479455
1.731354892
2.127214436
1.192230537
1.998622616
3.296731288
2.914540469
5.279282949
1.299709888
0.1576664993
0.1881622799
0.04991164245
0.1334489378
0.1367173438
0.2281673343
0.06243156624
0.2118288007
0.1094243701
0.006753161893
0.02947405623
0.0584805881
0.09705749764
0.1249846932
0.1495339112
0.1925128205
0.1932174075
0.1977136332
0.1656376786
0.1596951048
0.1397865179
0.08162726678
0.056247907
0.02349508266
0.009316379389
0.8652363422
23.74122553
22.85454524
23.35963523
20.18667642
21.08000206
4.334769284
2.159768916
4.843032313
5.645704905
0.3681824106
0.07838569691
0.1640945096
0.1183664754
0.1737913481
0.2050234451
0.2464303628
0.1272640939
0.1611388702
0.02396636673
0.04104473584
0.06751692129
0.1336588386
0.2057750089
0.2407639381
0.2852922793
0.330845061
0.3394652877
0.3477651431
0.3196313135
0.2871411735
0.2465848946
0.1845558405
0.1414538758
0.07625280085
0.03313084245
0.02351080194
0
0
20.4377109
21.2810218
2.681203958
1.371334314
8.8977613
2.901104386
4.841928455
0.5957132365
0.3122523538
0.1913791787
0.1117975602
0.1702929838
0.1519131066
0.1806119562
0.1845063137
0.04140497332
0.02250983043
0.04370090773
0.09848794916
0.1543572899
0.2406593059
0.3165226772
0.3863256016
0.449610193
0.5118154338
0.5265375316
0.5462917416
0.4877054678
0.4570050827
0.3794248838
0.3004351707
0.240694272
0.1529629699
0.08381358534
0.05401132122
0.006606626438
47.11611781
46.52026562
37.65978651
30.30160328
1.471988581
2.110559998
1.329449131
1.570295428
4.702174554
0.3292030452
0.1407403915
0.2245975054
0.4847486407
0.2963225794
0.2869647242
0.1486280078
0.1945246955
0.01710217009
0.05695409238
0.1102464333
0.1728708725
0.2391438817
0.3754893257
0.4844085289
0.5819135406
0.6399746795
0.7062176729
0.717273291
0.7180196521
0.675880699
0.6441279373
0.5551018249
0.4677213655
0.360438834
0.2612258059
0.1709943162
0.07943406091
0.04188245184
0.01561076002
27.87293625
21.37108778
20.19724232
1.111361284
1.896393168
11.91821663
23.07439747
3.572693569
0.65905952
0.1550445095
0.1569813957
0.1766178586
0.2106829374
0.2278143362
0.1665566653
0.04897828218
0.02177581226
0.07774757134
0.1737277213
0.271332501
0.3841729842
0.5097590605
0.6396443536
0.7174364172
0.7765036996
0.8148485949
0.8395939503
0.8386933102
0.8255092849
0.7875321154
0.7303501711
0.6349881933
0.5246694322
0.3839954601
0.2543743235
0.1641825976
0.08986825143
0.02421859442
0
1.208446728
1.163367034
27.07105517
21.06250143
13.95281017
2.551848775
6.232797345
1.815218521
0.7472791949
0.3199397179
0.1834923694
0.1316618814
0.2307852918
0.2014233853
0.01859327898
0.05134176968
0.1340034095
0.2506844185
0.3802946216
0.518162197
0.6608505003
0.7708443236
0.8350078567
0.8473378044
0.8551305651
0.8467073352
0.8496301287
0.8530838508
0.8465869304
0.835451037
0.7741934349
0.6482498201
0.5177090992
0.3683395626
0.2384373359
0.1231778652
0.05576748464
0.00911308792
24.13365354
2.538161568
24.13298908
20.78733884
0.9720006138
20.73707777
18.77445412
0.4136577691
0.3006334761
0.3874071481
0.2956544613
0.1054016212
0.2086127972
0.05523363754
0.02247937665
0.09718063787
0.1855795249
0.3192996418
0.4835256947
0.658365148
0.7673371695
0.8394233155
0.8523233121
0.8139603929
0.7762767014
0.7446867369
0.7470991223
0.7715928314
0.8095491871
0.8346830112
0.8215622671
0.7687867003
0.6223590537
0.467789844
0.307555578
0.1702514541
0.09228054939
0.03302035716
35.71320222
31.59312963
26.29081889
24.11524348
4.407968539
1.954022994
24.02286694
0.3572069704
0.242154623
0.1436853962