/*--------------------------------*- C++ -*----------------------------------*\
| =========                 |                                                 |
| \\      /  F ield         | OpenFOAM: The Open Source CFD Toolbox           |
|  \\    /   O peration     | Version:  v1706                                 |
|   \\  /    A nd           | Web:      www.OpenFOAM.com                      |
|    \\/     M anipulation  |                                                 |
\*---------------------------------------------------------------------------*/
FoamFile
{
    version     2.0;
    format      ascii;
    class       volScalarField;
    location    "3.996";
    object      mct_N2;
}
// * * * * * * * * * * * * * * * * * * * * * * * * * * * * * * * * * * * * * //

dimensions      [0 0 1 0 0 0 0];


internalField   nonuniform List<scalar> 
50792
(
3.946922876
3.70480782
1.824028097
1.789583491
1.376493799
0.9305826377
0.7574046373
1.037409443
0.8208390316
0.8962931936
0.765993366
0.9569875768
0.6133588234
0.7377098344
0.6209960207
0.5282751169
0.8148007624
0.8563597173
0.6443517617
0.7529596105
0.4899154962
0.4904261143
0.7289168202
0.6003740419
0.450174812
0.9152331444
0.8272478326
0.4036052368
0.5698123163
0.5436275977
0.4296548007
0.544553698
0.6348840802
0.5032130758
0.6346365344
0.5315767839
0.4384925612
0.5747455953
0.5267815893
0.4613950486
0.4187011228
0.4174167992
5.596673241
14.99087781
9.915485709
2.96809358
1.467030455
1.413223876
1.782925093
1.575420029
1.320593756
1.287904328
1.225063273
1.288560124
1.127549768
0.7330151744
0.6093010943
0.7198529802
0.8116903131
0.7812468279
0.6798737218
0.7665843719
0.8222755248
0.9325176792
0.7090444007
0.552738614
0.4578957826
0.53535717
0.5908088881
0.4947266004
0.4915255305
0.5190316911
0.4804791027
0.6085758549
0.5546674265
0.6120782015
0.6874444941
0.4734715082
0.5849240975
0.4496434768
0.4993602514
0.4696556034
0.7862768781
0.7694366585
4.794497094
14.12709999
3.648464561
2.341925382
1.922809549
1.32367539
1.219118743
1.439561087
1.167594782
0.9633627886
0.7320461405
1.242286486
0.6454483161
0.7784760041
0.7195428
0.9611980817
0.7098804032
0.60916229
0.5135144624
0.5215784731
0.5737316743
0.7329811458
0.5032903006
0.5089855506
0.6205299723
0.5033540304
0.5547189379
0.9645923678
0.504786191
0.4676089982
0.5421451328
0.6644916799
0.5819558474
0.4610544515
0.486481968
0.5025924102
0.4598716816
0.4171585685
0.4154570593
0.478832625
0.606952922
0.5781175091
5.738844368
3.234088786
3.222312891
2.442908337
1.712588846
3.265858521
1.596075737
1.761329541
1.598699373
0.8915875469
0.6953697423
0.7760683539
0.5659609215
0.888290702
0.6916386289
0.5145769441
0.6480831688
0.5691616438
0.7421492489
0.4625886466
0.4523555255
0.4793221849
0.5916472577
0.4288372412
0.3741137195
0.4760605034
0.5482420465
0.6043275795
0.4506259918
0.4054741208
0.5634513838
0.5210865885
0.6471068383
0.5841501008
0.5048434881
0.5552836792
0.5386305509
0.4651492971
0.3934234563
0.519159376
0.5264961465
0.5167130688
5.585247445
2.584088369
12.65699642
2.804338013
2.571772347
1.91595057
1.045581601
1.443267104
1.556443695
1.011567613
1.182699315
1.756056769
0.8949964424
1.052936176
0.6558792583
0.6514263777
0.6292537984
0.5444925498
0.4850368665
0.484068982
0.4925212278
0.3599152403
0.4005612849
0.487759378
0.3770165281
0.4525493205
0.4999564762
0.5424252954
0.5480959736
0.4663924776
0.4512891648
0.7602038586
0.5557941849
0.629931572
0.6130920199
0.4753466191
0.5227685155
0.442441359
0.4133306983
0.5382704835
0.5059419068
0.5926360069
2.169199721
6.65689233
2.040477314
2.623977203
2.615345577
2.056975334
1.95160444
1.774936134
1.286929925
1.442749888
1.35722484
0.7152058791
0.8907721674
0.7662208836
0.9079850353
0.8210289688
0.746049175
0.772098545
0.4992041846
0.5040764932
0.4765134255
0.4424017981
0.3579299662
0.4003948893
0.5620084532
0.5134539476
0.5182645516
0.4437062114
0.4258003812
0.6332207387
0.4165262988
0.65282676
0.5362581792
0.5710050478
0.5807845454
0.4535600078
0.5671403667
0.5263117239
0.5861325214
0.5519903937
0.613875798
0.7370028279
4.062412499
15.79916436
3.680219823
6.899530589
5.826678335
3.708441963
1.044339965
0.9620882243
1.187345594
1.347583054
1.044852952
0.9189583263
0.7906297725
0.9160483963
1.095617956
1.075528474
0.6386325154
0.7282996901
0.6905969565
0.5122605376
0.5633476972
0.3742244993
0.39233903
0.496039747
0.3981591801
0.3993349705
0.5857542557
0.4898314574
0.6666593905
0.5519976418
0.4104291711
0.4255324057
0.525092129
0.5228822716
0.4576677296
0.5992968231
0.6142171747
0.4459551054
0.4755151661
0.4008408495
0.4740874596
0.9019565518
3.173546891
5.6453671
12.04050849
7.239169659
6.289277273
2.611676872
1.211663851
1.340041999
1.336238403
0.9784806824
1.100930274
1.173545487
1.154043044
0.8002223913
0.8730911556
0.5966516966
0.4679249804
0.5322102311
0.6401429376
0.5533848918
0.8108697464
0.5907301073
0.5179595945
0.6224482415
0.4672607266
0.5059700502
0.4514115504
0.5553754865
0.4710478018
0.4690739238
0.4315211619
0.4937488886
0.5232967138
0.5786675221
0.5000068076
0.5856851516
0.396903898
0.3668877328
0.4325038582
0.5038874349
0.5471207551
0.6090691331
2.880307897
3.40764591
2.034225279
1.782048116
1.290613865
1.171431175
1.375608751
1.106611487
0.9261929987
1.057006219
0.9883723569
0.85599271
1.073909712
0.7089680369
0.8198170334
0.6351638773
0.6280119504
0.7534752819
0.6208938076
0.5705056498
0.6587988649
0.5069916198
0.7531718373
0.7596539344
0.4973789386
0.419129169
0.5661626319
0.5029097366
0.5810071722
0.4893945759
0.6931129051
0.5206029715
0.4462792693
0.5481352733
0.4418954978
0.7498617963
0.3804030101
0.3858439988
0.4607571302
0.3738335736
0.545888615
0.7750562375
2.257888676
17.03719975
3.390480302
3.557238415
1.202123225
1.252183682
1.663806902
1.075272121
0.8504650615
0.8479018454
0.8839007375
0.6272078424
0.7880591511
0.7399412091
0.7779332716
0.582646958
0.7405370129
0.5748187193
0.4488459385
0.4663542079
0.4065384731
0.5941490528
0.4374226191
0.6398415251
0.5256814156
0.6562570702
0.4904144235
0.4787803101
0.4716778933
0.4608390418
0.4905662024
0.4579899292
0.633072018
0.5145031346
0.5801647465
0.4754224713
0.3888678992
0.3901742692
0.4973309133
0.3966895996
0.4488177732
0.5647102192
2.148789435
14.02552958
8.134478299
2.042756185
1.12407263
1.00957166
1.878422495
0.9947512708
0.7889712966
0.7844053457
0.7533687573
0.8805886461
0.8896856007
1.13444197
0.7556715493
0.6555055295
0.7062370021
0.6672705247
0.7418092906
0.5545682322
0.5670212205
0.4284682967
0.4839488786
0.5252983602
0.5464358674
0.5655962604
0.5483179467
0.4660330513
0.5467382319
0.4976255564
0.4653336797
0.5970200612
0.4445700134
0.4998610938
0.467326861
0.5493575623
0.4044441339
0.4311164142
0.4142049814
0.47301025
0.4473606338
0.6876608101
2.940979943
4.136045415
2.915374391
2.19472829
1.849964031
1.004732391
2.788656206
0.9561487027
0.748201149
0.8685190579
0.8097723946
0.5799737185
0.681969941
0.8291366459
0.8856342221
0.7423558943
0.6487324255
0.6555361081
0.4577971591
0.4802992163
0.5601527321
0.4825792362
0.533539789
0.6525066716
0.6676227299
0.6435697361
0.5209269489
0.6222867757
0.4322076008
0.5785102008
0.4495425112
0.5162210125
0.4826707759
0.6790047848
0.691567505
0.6224810891
0.6305324211
0.5076726488
0.5129183058
0.5312570225
0.597242552
0.9279465101
2.575416762
16.01215766
10.49542306
4.382952948
1.98542732
1.242029853
1.716893345
1.235298087
0.9178525884
0.986740667
1.500099788
0.5796147756
0.6746415476
0.7212314017
1.161446917
1.055698084
0.6725274986
0.7374395189
0.6007619107
0.4910217083
0.6200203871
0.885511048
0.5049746114
0.5660498482
0.526393124
0.6028256062
0.5970978159
0.4575980323
0.3734823974
0.4212664135
0.5421113964
0.5312541609
0.467102498
0.4716879852
0.4952139348
0.4732634294
0.4600320377
0.5922461535
0.5588356519
0.5802582244
0.5322541639
0.9555276758
2.863024159
3.320111453
2.520623942
2.142687158
1.389792616
1.19524722
1.619209969
0.8823766263
1.17400889
0.8660837405
1.045126023
0.7822359909
1.181476476
0.649680097
0.6889508507
0.9914708189
0.8255691567
0.6786921087
0.8004453093
0.8409692137
0.6725197335
0.5653208462
0.6213742366
0.4123286149
0.3983220867
0.4592005775
0.4285819365
0.381439968
0.4203338393
0.5588754541
0.5223061777
0.4705029896
0.5258210929
0.5442425887
0.6259766948
0.3950308025
0.4574343746
0.6138745202
0.5473488374
0.585137429
0.5115788929
0.6850522055
2.035688716
7.149511574
3.005109538
2.056170528
1.927900816
1.589981037
1.077994789
1.29547563
0.933758181
0.7752955947
0.8842115643
0.8520480336
1.006191113
0.8527552815
0.6844479417
0.7228959809
0.9726142155
0.6357725306
0.544383449
0.5793778891
0.7502361917
0.6197312487
0.5624073353
0.4967479943
0.5182764549
0.4962900666
0.7103123667
0.5594213985
0.4903168125
0.3730302219
0.4083208585
0.4646602681
0.584693513
0.5905950252
0.4539334162
0.4814805017
0.449645729
0.4260811652
0.4624982061
0.7128753023
0.5589280243
0.8502201469
2.403587698
20.5987985
12.26424953
3.954333891
1.559156411
1.538603391
1.55313496
1.017623225
0.9825202497
0.8170376597
0.8465480418
1.035173417
0.8972345292
0.7068631141
0.8152280697
0.7183288285
0.467046226
0.569754033
0.5861729679
0.4837870965
0.5258339103
0.5127603212
0.6797285631
0.5926351838
0.5609669074
0.5403321368
0.3960471451
0.4183444112
0.5265726667
0.4437844725
0.506513922
0.5861769591
0.5037036823
0.6457460492
0.4138818844
0.6357843434
0.4786699679
0.5812058775
0.6334888963
0.5929091227
0.584296441
0.5892761294
2.95135309
15.09693482
10.32646888
4.588832517
1.976858733
5.018615873
1.678562715
0.9803649153
1.105561825
0.9095771747
1.821365715
1.056861153
0.6654902502
0.9758537647
0.8878534359
0.8068377932
1.02565664
0.6697446659
0.4558451365
0.588028372
0.6766207828
0.711563992
0.6214297164
0.5456438641
0.5357418211
0.6419612666
0.4466086396
0.5472015374
0.4714902332
0.487497511
0.5030411983
0.5235513659
0.4644513355
0.4219452235
0.3395268255
0.3840425062
0.3639088252
0.4351069829
0.4689708369
0.4027286526
0.5433851986
0.8645858039
1.900522712
4.809680018
6.61071742
9.437579124
2.497597197
5.225822114
1.482334243
1.448733587
0.9414119346
0.9071506535
1.051127561
0.9696075528
0.9828137603
0.9292564725
0.7409674748
0.6566970227
0.720387309
0.6630262709
0.4340246692
0.4271011125
0.5626476891
0.5748270785
0.628107503
0.4560365344
0.6485293597
0.4935031373
0.6346367913
0.7108777606
0.7497050517
0.7066804559
0.5762610979
0.5892395022
0.5712217041
0.5452881024
0.4608922128
0.3978854595
0.3737378511
0.4629885835
0.4219574133
0.531798111
0.5390275982
0.9355587827
2.410868727
23.29120799
3.026957371
7.70783384
2.294279408
1.503744075
1.080636187
1.661708903
1.075005586
0.9054351008
0.7343687491
0.9423050331
0.9089983316
0.7179386537
0.5315452234
0.6428175108
0.6894737092
0.662816979
0.5720662821
0.5040386652
0.5937285802
0.5617652753
0.6090939731
0.4176938924
0.5311419349
0.4970867151
0.3808713782
0.4457800317
0.4486847595
0.4188124034
0.4656789242
0.4080603641
0.5188631934
0.5032525421
0.4525691159
0.4376330127
0.3804792195
0.4571294033
0.5408763354
0.6056899947
0.5667308681
0.846640812
1.699899901
7.339483857
3.996768566
2.629710223
1.475788766
1.777675157
1.318490485
1.420326584
1.41496881
0.7528200463
0.6108245994
0.8577478517
0.7525643599
0.6674639415
0.7153577955
0.5589043464
0.5614795628
0.4946676807
0.9471845075
0.5104143116
0.5046359819
0.4998243966
0.4880668933
0.3811492754
0.4138916224
0.4048104733
0.376873495
0.4250000411
0.5192605846
0.5047228178
0.5526632454
0.5943957384
0.5725511926
0.448367319
0.5745674672
0.704301297
0.5140039646
0.5420668055
0.4867097763
0.5570716557
0.5820070522
0.6413676002
1.183998326
14.29070863
2.835011284
1.932486941
1.727405277
1.883524529
1.263008353
0.9555161156
0.7615508528
0.7115334759
0.8413179685
0.5613439369
0.7468958306
0.3833965582
0.5892161747
0.6031759331
0.3696743045
0.4382051188
0.4959929124
0.4559185486
0.3541415985
0.4403892485
0.5015227541
0.4552230452
0.4796175188
0.4955376759
0.416531723
0.4353056641
0.4341739558
0.5451377838
0.5176015928
0.5284859052
0.4827499037
0.5509787769
0.5699675295
0.5124145366
0.5756772027
0.4826573131
0.6087372361
0.7720164005
0.642016757
0.7424376578
1.797279049
18.50468482
4.462176249
2.401835528
1.991388933
2.252583442
1.460342729
1.328001813
1.492501065
1.231683103
0.9719449452
0.7279609201
0.606317759
0.5713041358
0.417148406
0.4967706722
0.5247261061
0.4530094517
0.5670806331
0.5411074547
0.4520558271
0.4663864113
0.390460598
0.4322676832
0.4858755694
0.4657792836
0.4346375807
0.5289980493
0.6477695379
0.4963897528
0.4559254351
0.518472945
0.5113362439
0.4668189282
0.6016833531
0.4584067765
0.530995123
0.4554751953
0.6857701586
0.5309117582
0.6380173865
0.893543841
4.009101764
9.114350231
3.025150803
8.64687354
2.452470292
1.812201519
1.832125284
1.465684857
1.497814257
0.9970431423
1.153509458
1.13605231
1.065274501
0.6439800554
0.9519348066
0.5570607847
0.5511153355
0.5057618503
0.5552945496
0.6866791796
0.622423677
0.6003001929
0.4684473035
0.5901106318
0.3670125772
0.57044968
0.4765387336
0.5052566618
0.5809798734
0.4509616037
0.4353863425
0.3514908286
0.3897644209
0.4840963609
0.4218110207
0.4669945704
0.3889296257
0.3792905806
0.482337399
0.4950100551
0.6219608708
0.7925830598
2.080521617
2.438966464
10.37238151
6.72083089
1.669979121
2.271945328
1.773134066
1.54530088
1.338841233
0.8469473865
0.6965770769
0.8191956194
0.6416994879
0.6872835335
0.6963321644
0.6612459749
0.5362955803
0.5048921502
0.4906990816
0.757673873
0.7060334098
0.6266494204
0.52869844
0.5972691312
0.4019889851
0.5149840186
0.4830430208
0.6030830932
0.6039190734
0.7675469926
0.5744757916
0.4912164181
0.462588506
0.5259098253
0.5304434754
0.5311743241
0.4995420578
0.398819706
0.4868124992
0.450356047
0.5767123235
0.7078794056
2.143990446
21.76996666
12.32125954
3.002721042
4.161189094
2.607563101
1.462312722
1.988690471
1.375900678
0.8201393875
0.743144129
0.7157121163
0.6431404072
0.7916017866
0.5560238455
0.477369123
0.6118583795
0.5201216602
0.6442742836
0.4582179156
0.7251300788
0.6410239206
0.5934027158
0.5181898325
0.5085247977
0.4560359862
0.5435272915
0.5311211059
0.55752325
0.5376198903
0.5665732344
0.4490102966
0.4344603947
0.4507161232
0.5002725857
0.5140504356
0.5743888143
0.4781961487
0.647485005
0.7377616172
0.5799651191
0.759756132
2.811883701
22.75848347
3.520224169
6.981542846
2.123291761
1.335279175
1.19300558
1.140722042
1.369319893
0.9568013212
1.290778096
1.05337278
0.6661448804
0.5838885467
0.5303272549
0.5067993348
0.6453532547
0.5545929642
0.7109202898
0.5774688477
0.7371884217
0.8222623673
0.521511696
0.5151011454
0.5247566376
0.5208378738
0.4216683806
0.4007917923
0.4245580063
0.4370742581
0.4549276523
0.5457274255
0.4082463789
0.4551951076
0.4363493451
0.5095830825
0.7026885921
0.5598690001
0.479166364
0.5211204369
0.6941760297
0.4425322249
6.240295522
6.82954826
1.830412618
1.445478771
2.197316497
1.60946371
1.986858058
1.543933101
1.398851194
1.415776967
1.138952395
0.7830411472
0.8805406887
0.6223497355
0.6348440341
0.6261672052
0.4516863385
0.4582273056
0.5074057133
0.4267110846
0.4627341554
0.6186210062
0.5681874303
0.5358693118
0.4238212272
0.5606872299
0.4506114178
0.4477614607
0.374633558
0.5521159324
0.4273359116
0.440268621
0.4876615991
0.442812461
0.4943571145
0.5104971505
0.5046823648
0.5956021986
0.5457745809
0.5819720312
0.7843698102
0.5423262046
2.525453576
3.202623298
3.358717177
1.425281704
1.39235639
1.034738734
1.334217498
1.435011059
1.259175046
1.429138303
0.9387875385
0.7741382424
1.509619045
0.6474545522
0.6107582234
0.5856283951
0.5099120185
0.5108259951
0.5651131523
0.5153686422
0.4343537388
0.5615866876
0.623346836
0.6434894338
0.5340769588
0.6715990354
0.488962033
0.4404233731
0.4082307997
0.4403881505
0.4614378225
0.4384300171
0.4394798831
0.4402600119
0.3705589514
0.4955299982
0.3952213738
0.4980289489
0.4269981341
0.5252078924
0.5702882655
0.6795741085
2.465884255
3.812561785
1.377893778
1.44523995
2.898902445
2.331175429
1.24191768
1.237892909
0.9916173047
1.010231925
0.8851613289
0.7233878723
0.7462394706
0.6721697097
0.5998111484
0.8240839326
0.6148606756
0.4340490619
0.630874401
0.487327979
0.5000342139
0.6170197887
0.569388664
0.4900742256
0.4478052365
0.5134360042
0.4421015199
0.5618301593
0.4103651922
0.3972749204
0.5050245335
0.5573106462
0.4436163367
0.6018151809
0.5585647688
0.4129413175
0.4922780497
0.4899322668
0.482363372
0.5563253779
0.5142737324
0.4970446463
3.704479777
5.394536127
2.856077192
1.788879347
2.798261986
1.826251747
2.31569818
1.090440235
0.9310416338
1.789884662
0.8694879973
0.8168058158
0.6615155389
0.6808924421
0.5693671769
0.7779296866
0.6311862466
0.5820205913
0.427970315
0.5771767157
0.4695286207
0.5142528456
0.5100118158
0.3311223199
0.4606070261
0.5116088782
0.4921856175
0.5040365964
0.6229841032
0.6553188932
0.5731074669
0.622008524
0.7748467922
0.5636316812
0.6087537079
0.4990082778
0.4676318493
0.4282877091
0.4580086536
0.5044409756
0.5989368933
0.639108023
4.413295496
5.219077744
3.407753445
7.437537992
5.343274001
1.837561322
1.071326672
2.278387367
0.9494335818
0.8914080263
1.273786622
1.065906629
1.068489684
0.614177236
0.7082348998
0.7313278701
0.583108314
0.8404266174
0.5355294734
0.6033284888
0.4276054464
0.5756521572
0.5031999622
0.6397104961
0.5305674533
0.723507511
0.5706423696
0.5872132771
0.4957066535
0.5968358007
0.533435559
0.4841273681
0.5149289941
0.5816371695
0.5893981956
0.4674507621
0.5516755204
0.522159466
0.4411436535
0.5470805092
0.4575359049
0.6586117575
3.289357544
3.567984331
9.592701181
7.04360358
5.211047526
1.592383155
1.253630829
1.06311377
1.154140656
1.546448412
1.018043378
1.295959945
0.9979257968
1.249026711
0.7632313666
0.6755735079
0.6044266521
0.6028083767
0.6158714828
0.4683442746
0.3734275944
0.4301196922
0.468726132
0.4591224862
0.409817045
0.4939518084
0.5963915998
0.6169797514
0.422761353
0.5270742523
0.4507518003
0.3991126889
0.4932226492
0.4873333181
0.5599133755
0.4737643372
0.4650059161
0.4861149853
0.5981674609
0.4896618879
0.5951020619
0.6943546615
3.149191125
2.995745913
8.5935042
4.177913661
1.731337478
4.617364372
4.003293866
1.894932119
0.7382090896
0.7583760347
0.9704183756
0.7875957448
0.7508217447
0.777281782
0.4729032486
0.6380192551
0.5082368123
0.4578567892
0.613578715
0.471234306
0.4173378775
0.4018438373
0.4100307928
0.3603921806
0.4415239397
0.4051829575
0.5402621796
0.6081372685
0.5922197693
0.5202838834
0.4468564747
0.4558777297
0.5037269317
0.412904599
0.5871666044
0.570820914
0.7015612477
0.52685379
0.5000279331
0.4456369056
0.5419806998
0.7261909012
7.70394876
7.747735157
9.922812673
2.380063653
2.560028509
1.881466344
0.9970367227
1.07150109
0.8200539018
1.195897917
0.7541204094
0.9074802865
1.032057163
0.7091224327
0.5425640785
0.606317573
0.5416650505
0.5444931382
0.7767339951
0.5472776489
0.484846894
0.5091090195
0.4612259804
0.4976180735
0.549917641
0.4748039366
0.4290205855
0.4992736819
0.4701371118
0.5727800161
0.5843851976
0.5414910591
0.4962052196
0.5498029395
0.4464183627
0.5347588646
0.6162001971
0.5404629818
0.5696792319
0.5119647591
0.5618427549
0.6828989702
4.312022979
19.45540677
9.49645005
1.842943112
1.055964323
1.301559257
1.16221549
0.9111448974
1.179414383
0.8016760282
0.7299992608
1.162991915
0.9252271027
0.8533511553
0.7407026043
0.801861967
0.7755000313
0.5658440066
0.711031413
0.7149448901
0.7127128436
0.4908161456
0.6691248072
0.4237708784
0.4770973544
0.5461920431
0.4886138361
0.4890437992
0.5634628498
0.5277916787
0.6573058479
0.5642837982
0.5039159382
0.4577580339
0.5046476735
0.4754139587
0.51246459
0.5051459383
0.4118982283
0.5926773682
0.820038354
0.5441957673
2.361685103
16.26422116
8.909936534
4.020490259
2.683304462
3.052938086
1.18080271
0.9185031469
0.8809520223
0.7821813801
0.6618229776
0.7138850162
0.6919584168
0.5667985482
0.7291682515
0.6942177429
0.8941451745
0.5500542728
0.4952138827
0.4935589993
0.59818126
0.4758201623
0.4926374771
0.4807871451
0.5066213046
0.5074641718
0.4770918607
0.5741521082
0.4133582784
0.6046935524
0.5403634839
0.5854946812
0.767330812
0.63652737
0.4964159411
0.4751612231
0.4406967869
0.4482869149
0.4600731989
0.42333719
0.4845803591
0.59700491
2.30130812
14.96008226
9.966784636
7.675629384
3.179927959
1.846393506
1.151536179
1.045674935
1.275904255
0.6827758478
0.706588954
0.6689197203
0.5545534031
0.6736898643
0.6928807941
0.6275687342
0.7014229993
0.5596036656
0.5565356298
0.6000294454
0.6990335343
0.5721127459
0.5207094096
0.5174383901
0.5354894585
0.4961593685
0.4810448604
0.5452918796
0.5363618703
0.4162214385
0.5425244969
0.5212076195
0.5380950719
0.5339222566
0.4211155256
0.4137459279
0.5649561952
0.4942865095
0.5438126989
0.4246530905
0.4872501072
0.6509053813
2.596218162
14.96553084
9.170315077
1.791117708
1.681873205
1.892244024
1.511586346
1.036553304
0.9724644094
1.050920943
0.8696400226
1.162699898
1.004883324
0.6788084106
0.8321074492
0.5193083804
0.6517054807
0.7291066224
0.7147391375
0.6106676318
0.7833425333
0.7213930655
0.5273046704
0.4961964257
0.5821910714
0.5728086468
0.5834171271
0.5309471599
0.5573548479
0.4318401673
0.5663633602
0.4563377154
0.4579836365
0.5273059916
0.6310673724
0.396390343
0.4838698207
0.5011716306
0.5731624698
0.4350010351
0.51598324
0.5395330461
2.566110801
4.155885174
2.783263283
1.554439231
1.185394334
1.160968135
1.200459385
1.016176551
0.9908681131
0.9330869307
0.8635388303
0.6635384012
0.9732564222
0.8327363533
0.8664356456
0.5830475038
0.7658998563
0.6594962192
0.5275210861
0.604005228
0.411694882
0.4727792593
0.6091531898
0.6276406624
0.5005527012
0.5824901738
0.6212248655
0.584038722
0.8323950354
0.5875982786
0.4509339759
0.5040935437
0.511567783
0.4521764682
0.5217635468
0.5802099976
0.6919477955
0.700821149
0.5758708355
0.566619941
0.5953908201
0.5652868158
1.731550996
2.269545622
1.845544964
1.260962131
1.334929235
1.342635749
0.8945665222
1.350748176
1.385487089
1.197490017
0.8629685882
0.5705339346
0.6875870365
0.8404929573
0.7214893056
0.5297892553
0.7021614222
0.6017193982
0.4924680622
0.4572721789
0.5745982005
0.7963875896
0.7753824843
0.5691356151
0.584639933
0.503170242
0.515183018
0.6301987146
0.71980239
0.6523750641
0.538996519
0.501023919
0.4064810273
0.5199111065
0.573175734
0.5964578253
0.6645245622
0.7769744581
0.7375833079
0.6495121042
0.8180197646
0.6417823612
2.269861421
6.964313234
2.775355023
2.414799722
1.861572383
1.133779036
1.295309244
1.633716068
1.597031339
1.255553276
0.9196709499
0.9137415349
0.7457184063
1.139131543
0.7502804987
0.584071403
1.042028388
0.5101515075
0.5335754609
0.3976974268
0.63590416
0.7244012933
0.6409161687
0.5685391734
0.5251624553
0.5774542792
0.3870652098
0.4389076454
0.6158312122
0.5715589925
0.531688085
0.4625595508
0.5198177175
0.5107471374
0.5989325005
0.4497410711
0.5637027846
0.6767930905
0.9467743138
0.5895448515
0.909008214
0.7795572471
3.872745775
3.461503138
1.578104446
1.15098579
1.06267933
0.8971231732
1.144932433
0.8675377477
1.174965466
0.7042588339
0.8487369037
0.6675864909
0.7147438639
0.6138943835
0.633400026
0.6778668495
0.7910347332
0.5946216994
0.7330817734
0.5464784362
0.5366376413
0.8688747242
0.6956947618
0.5298628134
0.7126011686
0.5613051642
0.4836784361
0.511541298
0.5718616694
0.5454024812
0.5554035096
0.4966537876
0.5050411313
0.4755599641
0.5309349801
0.4474312167
0.498628154
0.6354734473
0.5031254874
0.5661958178
0.5689785312
0.5086867849
1.096169062
1.026852038
0.8892384775
0.6587261688
0.5915862648
0.5673878602
0.4798637297
0.513508152
0.427164577
0.520577013
0.4412579774
0.3297983941
0.4110480365
0.3373474474
0.3762245471
0.3843851246
0.4020634886
0.3557003026
0.407171322
0.4701960986
0.2881000584
0.2991923904
0.3629597429
0.3934913308
0.4115348973
0.412178946
0.3444685597
0.2574711463
0.3113282012
0.4858098521
0.391030071
0.3733758612
0.3856676345
0.4008185279
0.4309346604
0.3444919461
0.3867526291
0.2877470664
0.2766555924
0.2857395901
0.2327069327
0.4571843451
0.8555056249
0.6554345654
0.7376724525
0.5925710768
0.659711526
0.4274268666
0.4418393138
0.2897429313
0.3723739542
0.3827032044
0.3388216471
0.2667413551
0.245848268
0.3058172657
0.3101797237
0.2969958833
0.2899934146
0.2501446532
0.3297037045
0.2584507049
0.245301783
0.2592890707
0.2431703579
0.3030465291
0.2987656167
0.261857817
0.235296614
0.2582479849
0.2300222841
0.2896195944
0.3761100552
0.3471735464
0.3536223866
0.2584402437
0.265201246
0.2129604991
0.2586719983
0.2536113747
0.2346046518
0.3107385111
0.2760293929
0.4922382082
1.222056467
0.5183996345
0.5193426455
0.5854540547
0.4996703754
0.2990541739
0.2850751377
0.2857174939
0.2651679003
0.2880592365
0.3294140986
0.2390648391
0.1793636496
0.2154623375
0.2798118831
0.2620670115
0.1834397677
0.2178259785
0.2070358405
0.196966072
0.197915981
0.2077217686
0.213045684
0.2166897751
0.2499223321
0.2185054808
0.2446917688
0.2137243064
0.2698110564
0.2803263196
0.2703071607
0.2570405518
0.2251882329
0.2255711322
0.2344733231
0.268196919
0.2326884182
0.2784211293
0.2290418445
0.2133781688
0.283482386
0.3554379334
1.351020365
0.6036916541
0.551683117
0.3474966661
0.4161741187
0.3226311027
0.2669950255
0.3214044
0.2709858161
0.3004720172
0.2205232152
0.2201789463
0.1795682721
0.1667651081
0.2141794401
0.182093371
0.1581636489
0.1625290625
0.1928339755
0.1887074525
0.1843566872
0.1996644283
0.2179538652
0.2111897806
0.2136669441
0.2390894187
0.2575044387
0.2486190682
0.2123038174
0.2344404654
0.3086420989
0.2830907659
0.2773390888
0.3054983141
0.2944530405
0.2859481873
0.3354513202
0.2789358197
0.2557998099
0.2540060478
0.3369666578
0.4611352836
1.138497981
0.5845217473
0.6044970667
0.4802725753
0.3695713255
0.3213731442
0.2843393973
0.2353188498
0.2998107616
0.2921419072
0.2683618361
0.2036612012
0.1555270457
0.142898542
0.1499842373
0.1342369115
0.1425391711
0.1447877446
0.1545666822
0.1516978647
0.1993063883
0.1842616275
0.1864546457
0.1656242626
0.2355394434
0.3195346094
0.3092262067
0.259234227
0.2554327267
0.241390529
0.3244106757
0.3070960667
0.2917080698
0.344840241
0.3125723815
0.2477386509
0.2721597283
0.2809212327
0.3265641512
0.2680759886
0.3018207103
0.364160554
1.122640811
0.6647258395
0.5271972113
0.3978100299
0.3192698955
0.3670679115
0.2886277161
0.2369703343
0.2618847268
0.2098980957
0.2010941692
0.1843847807
0.1840173714
0.1305555128
0.1225653675
0.1250745483
0.1054621552
0.1247280411
0.1691974206
0.1713379661
0.1854638188
0.2111296191
0.2076926558
0.1748664382
0.2238248678
0.2882846602
0.3810548728
0.3455389123
0.2854016254
0.3750129398
0.4846623248
0.3250565903
0.3109194718
0.3170085019
0.3713917682
0.3663651163
0.2707179145
0.2369905485
0.2711766223
0.3304439302
0.3570642112
0.4751752584
1.220838142
0.4774642685
0.3689610082
0.3210139252
0.2916382274
0.2678775548
0.2587106632
0.2276675532
0.2173753286
0.2121207857
0.1776499828
0.1291112749
0.1176551728
0.1059117593
0.08704837015
0.09071411444
0.05245930492
2.481144225
0.5996463502
0.6759547376
0.5895027268
0.5957268868
0.3948462524
0.6267334977
0.4543297589
0.4333282967
0.4176545693
0.4013228136
0.4448699742
0.5095544689
0.4083703543
0.3665848195
0.3592209845
0.6031640346
0.8804506403
0.5018231877
0.3480067203
0.2680970286
0.2683409353
0.2491850377
0.2411170801
0.1912814966
0.1928765658
0.1605700189
0.1448916425
0.1144616056
0.09241523997
0.08152132017
0.04831672689
1.07516909
0.9569485995
0.7018266361
0.7212740845
0.801976412
0.7623160357
0.5680206557
0.460064573
0.4352451502
0.540374757
0.4434131823
0.3930447284
0.4167878509
0.419713077
0.5108885004
0.9582442505
0.4707875046
0.3938830843
0.3224053335
0.2541967913
0.2578948522
0.1870413889
0.1408045808
0.1736174687
0.120850428
0.08446937586
0.1025797204
0.05455291294
0.0006252488893
0.0006403262497
0.000652449243
0.0006505705277
0.0006547280815
0.0006574316917
0.0006503370075
0.0006327181035
1.347705785
0.7109697481
0.99743934
0.8287637955
0.981583245
0.9085639936
0.8223938756
0.4942389677
0.6948497115
0.5811395013
0.5832538263
0.611544217
0.5842736903
0.8808223532
0.5441424239
0.3836577478
0.3078272547
0.2473772622
0.1998851537
0.1800662767
0.1465551571
0.136051978
0.09736479144
0.06473489705
0.0006363880508
0.0006691078628
0.0007103513612
0.0007186166872
0.0007340994384
0.0007337971387
0.0007397466222
0.0007330055419
0.0007186942399
0.0006997520139
0.0006650912716
0.0006347219887
2.062791415
1.391711193
1.440894635
1.839245335
1.062353423
1.189271774
0.8659717245
0.5751267569
0.678441635
0.6562325783
0.6779666939
0.5855144874
0.3634610716
0.2752895498
0.278223271
0.2549696335
0.1871610082
0.1938955862
0.1550767017
0.1021499395
0.06411209168
0.0006319229624
0.0006699108643
0.0007070886085
0.0007347439331
0.0007767364472
0.0007947452131
0.0008130828844
0.0008140251848
0.000814039369
0.0007960344724
0.0007899513645
0.0007733728634
0.0007413060203
0.0007074522554
0.0006619238396
0.0006279385265
5.284393256
1.636156882
1.596942331
1.729866836
0.9191190338
0.980213045
1.078953682
0.4765704683
0.6294990233
0.5604979353
0.8505459025
0.4320273111
0.3220013208
0.2423548075
0.2354292108
0.2265534377
0.1620593597
0.1120296074
0.06079039773
0.0006386416269
0.0006908981335
0.0007410455546
0.0007771298942
0.0008048205854
0.0008471022035
0.0008587914643
0.000870327118
0.0008589839442
0.0008581433213
0.0008598725042
0.0008514297107
0.0008266912126
0.0008029802322
0.0007618471648
0.0007291202689
0.0006847130573
0.0006336516488
5.279389578
1.479337597
1.39276974
2.991818147
1.539735546
1.182540096
0.7951204917
0.5971446103
0.6756396239
0.7413509897
0.4080686685
0.2950009714
0.2130280882
0.2001168995
0.1486985706
0.1208619728
0.0987655703
0.05703113226
0.0006339974731
0.0006940568071
0.0007423053761
0.0008020323988
0.0008377125956
0.0008720827391
0.0008690171447
0.0008747428838
0.0008716892617
0.0008680905746
0.0008608207303
0.0008645728744
0.0008717059943
0.0008720792252
0.0008674044176
0.0008372445659
0.0007905576497
0.0007367264802
0.0006787457338
0.0006148748556
7.92944466
2.752958873
3.122789072
1.559745516
1.094639812
0.9499475944
0.8768954574
0.8367885778
0.9971948015
0.6638750508
0.4158945676
0.2419634075
0.2428148655
0.1791143981
0.1357582172
0.107863704
0.07343334446
0.0006304408832
0.0006866348103
0.0007550399717
0.0007998353072
0.0008466737234
0.0008763942159
0.0008717344165
0.000848669284
0.0008355799166