/*--------------------------------*- C++ -*----------------------------------*\
| =========                 |                                                 |
| \\      /  F ield         | OpenFOAM: The Open Source CFD Toolbox           |
|  \\    /   O peration     | Version:  v1706                                 |
|   \\  /    A nd           | Web:      www.OpenFOAM.com                      |
|    \\/     M anipulation  |                                                 |
\*---------------------------------------------------------------------------*/
FoamFile
{
    version     2.0;
    format      ascii;
    class       volScalarField;
    location    "3.996";
    object      mct_mixture;
}
// * * * * * * * * * * * * * * * * * * * * * * * * * * * * * * * * * * * * * //

dimensions      [0 0 1 0 0 0 0];


internalField   nonuniform List<scalar> 
50792
(
3.485302718
2.050364568
1.050196615
1.510505955
1.178097514
0.8052175449
0.6957087705
0.8197980649
0.6748939127
0.7834098014
0.5872728064
0.7305157122
0.4824686199
0.5769828137
0.5429510275
0.4134043192
0.6430804883
0.6467740576
0.5588866157
0.6386453517
0.428139761
0.4275675229
0.5729971852
0.4966859413
0.3917347821
0.7408623481
0.3966006343
0.329277968
0.4523989091
0.4201016823
0.3437397291
0.4510993115
0.5430377118
0.4414377486
0.4228790118
0.4552743321
0.3814672145
0.4704928856
0.4525221515
0.4007543337
0.3612297024
0.3604540538
3.073785913
11.83539214
8.273295443
2.62705067
1.320441015
1.249548824
1.289276445
0.9874234315
1.105965947
0.8758577467
0.9752233762
0.8390490002
0.8172039458
0.6207450707
0.5275854639
0.5667221976
0.7012406225
0.611112321
0.5699352263
0.5685295483
0.5759578386
0.5497202427
0.4791465021
0.4559128626
0.3965146979
0.4826829744
0.4907795943
0.4328242917
0.427484855
0.4109550879
0.403541091
0.4215783356
0.4465166839
0.5180307337
0.5205359178
0.3922781299
0.4721359021
0.3453446643
0.3848653674
0.3946398555
0.6149966023
0.651500324
4.654010994
12.82528447
3.299859861
2.167578023
1.777906567
1.231576803
0.7676019865
1.180847955
1.061926215
0.7210346027
0.6652895627
1.030608365
0.5626614484
0.6692330443
0.6050012565
0.8269072576
0.6143397598
0.4695911739
0.4353511491
0.4513867434
0.4723970149
0.5404901733
0.4273597143
0.4143871263
0.5242731679
0.4346799565
0.4569635784
0.6455299174
0.4181732988
0.4062918804
0.4513570417
0.4150778665
0.4640486398
0.3949419897
0.3826361383
0.4184851895
0.4007103038
0.3672172363
0.352987604
0.4160319719
0.4369468033
0.4497194411
4.916694343
3.020790868
2.931921342
2.224293418
1.567762532
2.832070509
1.413491133
1.560055093
1.097798985
0.7875786595
0.5749486145
0.5731482406
0.507731433
0.7575836712
0.5932792463
0.4616823439
0.4674126171
0.4921027094
0.5666440887
0.3566234698
0.3611028326
0.3788873754
0.5118167989
0.370339578
0.3333916665
0.4249650833
0.4523923937
0.4655219969
0.3826045886
0.3503294567
0.4308479059
0.4033380849
0.4494973336
0.4829408067
0.4228473824
0.4811942807
0.4631741104
0.4096740937
0.3243459991
0.411109867
0.4442250101
0.4601135502
4.150611925
2.314279789
3.4965307
1.957916768
2.083402793
1.64560148
0.7971286195
1.158398038
0.8965744173
0.876790147
0.8136784266
1.234204158
0.7111988608
0.7856146289
0.5819730479
0.5566491906
0.4976636743
0.4832329775
0.4255753015
0.4123295735
0.4358605945
0.3032466834
0.3284596238
0.3965545821
0.3304065605
0.3542971789
0.4021333432
0.4689056514
0.4388584933
0.3593214476
0.3627026046
0.5122893011
0.4196381397
0.5163868598
0.4691700052
0.4230916761
0.4440653825
0.3808122736
0.3469654941
0.4470794302
0.4158064133
0.4964067697
1.993321988
5.872486189
1.845899643
2.347531114
1.675616808
1.812025639
1.640788664
1.083512412
0.9248032295
1.197725376
1.059868618
0.5943583541
0.7945690011
0.6426211489
0.7460488873
0.6469216808
0.6544467946
0.6899032069
0.442714066
0.4273458165
0.4245629647
0.3463562775
0.3153891548
0.3332155761
0.4898159013
0.4412918058
0.4357763286
0.3584414272
0.3411982634
0.5136532954
0.3572252486
0.4979402525
0.400081806
0.4447657386
0.4576522467
0.3923607751
0.4968250836
0.4447930609
0.4820740725
0.4284819083
0.4354030575
0.6142083533
3.127913952
14.97209139
3.590369836
6.322441807
5.194953007
2.63292273
0.8831812402
0.901497475
0.9949259273
1.065748312
0.8933319093
0.7981667357
0.6423268086
0.8065122371
0.9197537783
0.9312775664
0.5413015093
0.6025816857
0.543249191
0.4087479007
0.424178588
0.3319883463
0.344845903
0.4303782194
0.3440596057
0.3415134324
0.4219494163
0.3866171871
0.5042201102
0.4513593896
0.3504067366
0.3790885112
0.4206756996
0.467039115
0.407648897
0.5264468685
0.4913669512
0.3794793543
0.4033710952
0.3365822068
0.3723507061
0.6588711389
2.986201727
5.076168543
8.783303638
5.396472262
4.638859647
1.72219224
1.006831818
1.048849444
1.128993618
0.7639116327
0.856299349
0.9977743864
0.9590611922
0.6846601021
0.6982327512
0.4909785091
0.4040841143
0.4569910284
0.4957029591
0.4487042474
0.5694099505
0.4495707455
0.4207954864
0.4971898693
0.3934086558
0.3619174793
0.3573779121
0.4298761999
0.4057928531
0.3891840206
0.3584982537
0.4074572155
0.4457009281
0.4294000956
0.420531948
0.4972660385
0.3430025956
0.3227382315
0.3562995953
0.4351265038
0.4360579466
0.4664451726
2.566490642
2.914607671
1.666154696
1.617013282
1.171083627
1.075378047
1.223856035
0.8467094962
0.8109601006
0.7975068497
0.8503203673
0.7131744663
0.9185979539
0.6091879788
0.6268623313
0.5492427833
0.5430667985
0.6426092841
0.5105451261
0.4600663339
0.5572923462
0.3799404022
0.5826104741
0.5238008339
0.4206673871
0.37014926
0.4736330126
0.4157535195
0.4536804523
0.3653763536
0.349362938
0.3737039995
0.353133463
0.4392651046
0.36939977
0.4669664198
0.3143702816
0.2998803533
0.3679380427
0.3299966827
0.3880616419
0.6268044049
2.046778377
14.52051282
2.320482788
3.154949151
1.06613692
1.067125804
1.208944127
0.9429997988
0.7612136961
0.7063933772
0.7383392379
0.5298152609
0.6639926204
0.6286387099
0.5920524336
0.5288365702
0.6305700805
0.5231047289
0.3984041741
0.4056320151
0.3484780398
0.4628647831
0.3884062097
0.4841723677
0.4659629247
0.57081965
0.418479989
0.4092747818
0.3809747332
0.3269067642
0.4365644033
0.3909117559
0.5660318525
0.3771229233
0.4944922936
0.4174530487
0.349040601
0.3345706096
0.3931175461
0.3445220155
0.3653148463
0.4851937141
1.957457541
13.36919292
2.667042677
1.981222153
1.070819569
0.9449163574
1.644400704
0.8602375482
0.6115947518
0.6851979148
0.6258432176
0.7867324616
0.6550729276
0.8205504431
0.5330507731
0.555167948
0.5449644212
0.5694858112
0.6291638421
0.4815121981
0.5017241456
0.3599165287
0.3970257417
0.4363155889
0.4888582061
0.4936647243
0.4747538695
0.3941724485
0.4257550467
0.3922920257
0.3973743237
0.4964692235
0.3827331516
0.4189580794
0.3682772549
0.4541437182
0.3663651994
0.3612198403
0.3366108867
0.4104466017
0.3838471703
0.5987024415
2.496149629
2.762109001
2.438001104
1.951848063
1.625032458
0.8996763039
1.606035316
0.8311122686
0.6589653174
0.7494671943
0.6851661592
0.4687505955
0.5575603211
0.5468005872
0.6618201394
0.6461382897
0.5587471174
0.5162059454
0.3783880155
0.3988019217
0.4456399327
0.4125304286
0.4463033499
0.5028178541
0.5450974673
0.4659549461
0.420171596
0.4386833553
0.3623286868
0.4206237498
0.3561499029
0.4021726339
0.3761144128
0.5164088668
0.5373764693
0.4802727518
0.4765636709
0.4033236556
0.4182236587
0.4137901304
0.4890586445
0.6897119703
1.842497073
3.701779636
7.769841526
3.660250082
1.732186176
1.043686657
0.8674310766
1.070706476
0.7905827087
0.766303447
1.174382851
0.5201852667
0.588920113
0.6328004269
0.7737383244
0.894995753
0.5757529013
0.5896595488
0.4419916105
0.3701898032
0.4639262783
0.5624389748
0.3771752229
0.457014707
0.4284524351
0.5001407049
0.4491042394
0.3705885796
0.3164007047
0.3422528606
0.4131681368
0.4013805368
0.3428335147
0.3550695625
0.3727477747
0.3601728527
0.3516849293
0.4356346152
0.4514718642
0.4288679837
0.4449645268
0.6740844382
1.679483238
1.775561857
2.096649945
1.764029052
1.172614697
1.016660146
1.066297622
0.6612443191
0.7408315771
0.7689820657
0.8292448094
0.6159157394
1.027889395
0.5479925382
0.6005499847
0.658965241
0.7046978118
0.5568093886
0.5347579746
0.6285816262
0.5708522586
0.4595546565
0.412318531
0.3456523487
0.3530913528
0.3660869783
0.3494062175
0.3203894833
0.3266545412
0.428664699
0.403300808
0.3524352494
0.3684536163
0.4536218827
0.4388194628
0.3020514879
0.3320853813
0.4009127318
0.3746123079
0.4246669359
0.4106925667
0.5732790852
1.160877665
5.319439808
2.353240047
1.702605814
1.59743887
1.305111189
0.8580796952
0.8006501203
0.8193006619
0.6749657258
0.7394503585
0.7304873458
0.8802583996
0.6704000133
0.5989555633
0.598975389
0.8220548159
0.5357491962
0.4457986636
0.4900755973
0.6556875779
0.4943153002
0.430047346
0.373264381
0.405898233
0.3710380846
0.527832969
0.4433059431
0.3886494701
0.3183919126
0.3531380904
0.3821782793
0.3786494672
0.4055890318
0.3285242235
0.3897286773
0.3601215645
0.3439308802
0.3667000845
0.4855699204
0.4525470053
0.694714567
2.076484481
15.84433909
9.553479534
3.486332099
1.381260379
1.299931246
1.307968529
0.8852250376
0.8450200274
0.6864572196
0.71066423
0.8443791065
0.7784141764
0.5621055489
0.6429122911
0.530078743
0.4153708249
0.4536440571
0.4850038851
0.3703377413
0.4428236894
0.3975163126
0.5064193715
0.4180381802
0.4543533447
0.445259168
0.334459715
0.350666451
0.4272020516
0.3651059532
0.4408283187
0.4944494267
0.4194521731
0.4694003919
0.3639805659
0.5108217295
0.387952804
0.4986658295
0.4693347068
0.4618283122
0.4617676402
0.4876396129
2.58834765
13.34891595
8.946700393
3.9702941
1.723066832
3.906135868
1.262472306
0.8245022793
0.8650352458
0.6516307713
1.384700423
0.8744394254
0.5650757921
0.7112099836
0.5551752067
0.5957820013
0.6538716744
0.5212521143
0.3601329702
0.4619513765
0.5716999088
0.5425768322
0.4973663623
0.4139177541
0.4097197274
0.5157853063
0.3548574031
0.421463627
0.3630768603
0.39874139
0.4159757915
0.4191926802
0.3677109837
0.34287136
0.2991963566
0.3184413523
0.3150707581
0.3648673791
0.3668954873
0.312550056
0.4068922774
0.6760600637
1.538452614
4.325646483
5.368656626
6.663269784
2.067554058
2.104308551
1.287869418
1.220439118
0.744437197
0.793170824
0.8561143898
0.786315666
0.741509243
0.7533319243
0.6531923964
0.5010086248
0.5743221572
0.4875885936
0.3620001191
0.3740235398
0.4913959729
0.4694857617
0.5025727994
0.3781843258
0.4586183878
0.4110774129
0.4515161206
0.5750914473
0.5174888643
0.5558033301
0.4498097615
0.4627474449
0.5043873557
0.4847564666
0.3993059445
0.3294189696
0.3046184417
0.4141207859
0.3775202738
0.3729129908
0.4326155304
0.8002240469
1.980157593
16.36186368
2.662789734
3.259474592
2.033594931
1.222886871
0.8045417226
1.35571652
0.9489149559
0.7676556882
0.6036763192
0.7372995932
0.5831524946
0.5212599627
0.4575140667
0.5411554966
0.496797828
0.4498034004
0.4364029042
0.4160631987
0.4703728531
0.4592941819
0.4396433098
0.3182934171
0.4040156778
0.4342324281
0.3237188095
0.3701704475
0.3687686617
0.3402058484
0.3618118002
0.3221165009
0.4218756972
0.4240291879
0.3847483694
0.3741111087
0.3266392659
0.3923719838
0.4712936192
0.4633216697
0.4637995349
0.7210439232
1.611850174
6.339479044
3.36147237
1.769935797
1.212267102
1.187469982
0.9722126813
1.179275555
1.164732458
0.5750354406
0.5123790161
0.7166240826
0.6144629027
0.5447626206
0.5812479295
0.4623427936
0.473819547
0.4059656197
0.6534996431
0.390426075
0.4184706583
0.4266604513
0.3821234086
0.3085887464
0.3640427434
0.3666626249
0.3379005302
0.3489557244
0.4306437289
0.4178199058
0.4294564591
0.4870026893
0.4502901914
0.3810640998
0.4790289683
0.5855175999
0.426995303
0.4312060181
0.4085499007
0.4750991318
0.4786716755
0.5385300255
1.014681232
10.88015629
2.062574672
1.704977063
1.045697534
1.248581444
1.082030458
0.7971080705
0.6444261858
0.6257429657
0.7301724245
0.4801846328
0.6266417017
0.3389493885
0.5076930735
0.4539927474
0.3224880993
0.362960538
0.3926438031
0.3567570049
0.3019501213
0.3602081444
0.3893065543
0.3967015287
0.3721455655
0.4062600158
0.3477146085
0.3692481737
0.3490054335
0.4253731216
0.39682665
0.4321632436
0.4067801648
0.4615132924
0.4761585856
0.4175450877
0.4995713336
0.4066346895
0.5258112157
0.6384196502
0.4808341204
0.5787024893
1.567378962
15.05701407
1.84255808
2.109738016
1.483219057
1.220080074
1.02467176
1.163461616
1.115775714
0.9122116125
0.7808478202
0.649701618
0.543707794
0.5154998288
0.371726352
0.4409809821
0.4452910335
0.3700964977
0.4814588651
0.4245982531
0.4094301481
0.4192905611
0.3417419137
0.3240318179
0.4306390964
0.3918820594
0.3724135965
0.4120769247
0.4712697791
0.4219617025
0.3716203596
0.3962794821
0.3700339699
0.3405625501
0.4566923162
0.3590697453
0.434416497
0.3956176282
0.5466617899
0.4549223269
0.5201382922
0.7587676243
3.865533951
8.909303554
2.825980653
7.238378382
1.528035999
1.427310392
1.451952725
0.9840915563
1.140422675
0.8299698094
0.734303443
0.9342728836
0.8054740807
0.5436060097
0.6780742938
0.4893983989
0.4844300326
0.4223196062
0.4555865047
0.608326658
0.5428153076
0.4642711604
0.3707063664
0.4277696186
0.31209565
0.4598145866
0.4045038114
0.4086934398
0.5021019692
0.3991374478
0.3488683267
0.2793661622
0.2987235732
0.3640133676
0.3140680187
0.3951346741
0.3176023772
0.3240775017
0.3729823845
0.4390165432
0.4997701175
0.6279215699
1.522526525
2.104206428
3.156562729
1.787589668
1.458178524
1.986491554
1.546280454
1.286345966
0.8557241025
0.7181533092
0.6028152544
0.6389022604
0.5510156627
0.5603147833
0.5290328956
0.5875472557
0.4820671362
0.390854912
0.4278238341
0.6111763851
0.5981272638
0.5324783063
0.4493644013
0.5238131932
0.3439085028
0.3901150239
0.377520811
0.501376345
0.5176590905
0.5902191392
0.4889722615
0.376198413
0.3549957083
0.3750332469
0.4462299151
0.4656785668
0.4100862102
0.3307498477
0.389340043
0.3810564888
0.4540872474
0.6125902456
1.648109704
4.644254114
3.045629496
2.643493322
3.449818184
2.226216866
1.281131451
1.270712748
0.9407522132
0.7134247824
0.6243056717
0.6364854345
0.5343297003
0.5740892165
0.4690382567
0.4266693735
0.471179602
0.4358082825
0.5339149908
0.3990574808
0.601538703
0.4930937573
0.4774669198
0.4495960146
0.4193976718
0.3716806754
0.4185360656
0.4297056232
0.420820938
0.4656925866
0.4117227988
0.3699066833
0.3889169485
0.3551427637
0.3973684933
0.411416765
0.4876215305
0.4108194449
0.516809115
0.5318988707
0.470854318
0.6232154309
1.727053759
5.360479933
3.141013972
6.030691033
1.951073007
1.240171638
0.8764042773
1.014755775
0.9699110273
0.8561739244
1.138772027
0.808277628
0.5372987114
0.456770135
0.4278969879
0.4281817622
0.4394158544
0.472522364
0.5939442271
0.4971778057
0.5624809469
0.6784399108
0.4156538479
0.4423158658
0.4557252295
0.4172295774
0.3401683056
0.3202294825
0.3676112282
0.371611108
0.3608618538
0.4688282949
0.3572524814
0.3923007123
0.3421638866
0.3859787284
0.5909210281
0.4657195331
0.4092679295
0.4146165348
0.5147798517
0.392590686
3.554007267
5.772412142
1.664063651
1.274400925
1.849003531
1.355485914
1.656057126
1.352936952
1.197678
1.16094755
0.7662144245
0.65006371
0.6500159586
0.4941382419
0.510528848
0.5313317342
0.3894463136
0.3943551994
0.4445475896
0.3719092458
0.3916015899
0.5386054867
0.5043824157
0.4844625855
0.3854182251
0.4621173438
0.3783031239
0.3936544942
0.331658525
0.4033989564
0.3408275289
0.3552555885
0.3706498916
0.3537817652
0.3906667759
0.391346938
0.421645752
0.4181423105
0.4911485523
0.496623454
0.6355989179
0.4702034158
2.086815617
3.077004654
3.051957588
1.242031985
1.190601826
0.8813937963
1.120953796
1.195887515
1.046633168
1.172445526
0.7695057937
0.6260223364
0.8504142582
0.5015350187
0.5128496694
0.4948257707
0.4375117577
0.4376585101
0.4738659993
0.4355386068
0.3599602148
0.4471881412
0.4547604817
0.5430021978
0.4297080894
0.4873311616
0.3477018366
0.3376241771
0.3182058028
0.3369009234
0.3792030194
0.3613824096
0.3857943234
0.325050145
0.3223227124
0.3650869888
0.3331153788
0.4269884937
0.3575602588
0.4180189265
0.4895299856
0.576274645
1.543266819
2.913323503
1.228073867
1.2556322
2.387845487
1.963479678
1.066047621
1.005539101
0.7915580911
0.8280178908
0.7696175125
0.626235161
0.5392534609
0.5648062119
0.5206233249
0.5824599438
0.5099893573
0.3853338601
0.4860204417
0.3940843356
0.4193397369
0.5151246788
0.486855506
0.3833683554
0.3661778125
0.4029515936
0.3502372147
0.408748618
0.3379055176
0.3422975961
0.4251303042
0.3999479736
0.3841289006
0.4910514807
0.4884529997
0.3491256291
0.4041610713
0.4067617829
0.3854849148
0.370925309
0.4002939133
0.4211095819
2.292609702
2.589200192
1.622706002
1.393583895
2.274117745
1.401605402
1.087281641
0.8024651704
0.7456356507
1.227930263
0.7781863648
0.6933533458
0.5266585209
0.5715132633
0.4808933938
0.6478995035
0.4740130476
0.4854028602
0.3559966918
0.4788799598
0.4185305745
0.4345761139
0.4367608649
0.2835570687
0.3618210222
0.3583773679
0.4164027157
0.4395326634
0.5243896414
0.5550185114
0.4800503903
0.5173728888
0.5579902117
0.4405541693
0.4839535905
0.4385491434
0.4029116208
0.3696980965
0.3925311064
0.3904081678
0.5360798117
0.5614160959
2.553813543
2.960624355
2.969606028
6.205636968
4.536704332
1.514449355
0.8369012145
1.11291907
0.6919194279
0.7521465961
0.9919664698
0.8167839883
0.8469721383
0.5189409425
0.5695147645
0.5824344778
0.475277547
0.7144900311
0.4705791422
0.5214790131
0.3749530018
0.4599725362
0.4212567529
0.5075995826
0.383587426
0.484841497
0.4129900163
0.4747804848
0.4084225178
0.4821656488
0.3801753165
0.4201357262
0.4447808353
0.4409042654
0.4301309436
0.4056025271
0.4496143719
0.4209257402
0.3251735183
0.4143242713
0.3816945966
0.5540314093
1.706762828
2.080658836
5.062110397
5.700616879
4.378829498
1.306444215
1.112009108
0.9211952274
1.029494307
1.034548731
0.7615465727
0.8246301393
0.9105448371
1.097433501
0.5761264449
0.489534516
0.5520779512
0.5428836311
0.5366724984
0.4183613338
0.325328344
0.3780298487
0.3739710852
0.3570843399
0.3511244776
0.3969607484
0.470185863
0.4200499072
0.377154801
0.4317503604
0.3799073271
0.3427118603
0.4108996194
0.3856527451
0.4901892533
0.4066356062
0.3895646659
0.3837927095
0.4636301774
0.3899619862
0.4973137037
0.5225100203
2.406762143
2.635838128
2.168093595
3.552620428
1.561997203
1.700530613
3.387757083
1.708297197
0.673191814
0.5707246852
0.6850555618
0.6277682885
0.6312436489
0.6394305012
0.4083241392
0.5590405229
0.4568675376
0.3966620374
0.5096956797
0.3964304637
0.3502508396
0.3375239747
0.3167813075
0.3016177354
0.3663857003
0.3640174335
0.4747156617
0.4907811142
0.4418700837
0.4280085564
0.383904432
0.3604183821
0.377634646
0.3485196491
0.4492499001
0.4241558119
0.4354552062
0.3823507667
0.3879392751
0.3716207584
0.4138545372
0.5566943151
3.852060141
7.218174771
2.676911481
2.239265939
2.025449105
1.711038833
0.9274465274
0.8758052021
0.6500574276
0.7979798687
0.6366036777
0.7167950995
0.7675164112
0.5745029272
0.4658632148
0.5214581948
0.4771846166
0.3980360343
0.5745479654
0.4452444584
0.4195000659
0.4420045963
0.3791606759
0.4163459916
0.4656364036
0.3833934356
0.3641391184
0.4142789469
0.3661266026
0.4744118977
0.476773465
0.4489255894
0.3820977961
0.4421341252
0.3681471836
0.4265572256
0.4726688664
0.3632837417
0.4324340216
0.4024318998
0.4516241914
0.5557646851
3.718763961
14.36600221
2.189230075
1.603567141
0.9142230765
1.154443122
0.9679181598
0.7534990337
0.9282343989
0.6222004506
0.6213169474
0.910873038
0.7382717801
0.6746788565
0.5897294409
0.594180934
0.638615124
0.4678548867
0.5792917295
0.6209261498
0.6214259682
0.4277391512
0.5253428576
0.381649852
0.4227087642
0.4615816672
0.428164586
0.4306853846
0.4996537604
0.4187075154
0.5514808669
0.4523440444
0.4241151729
0.3940013945
0.4572260464
0.4187805614
0.3988813562
0.3586165277
0.3515156246
0.4952831424
0.5235876152
0.460329409
2.156888167
14.47417157
3.626126222
2.379423597
2.443123548
2.725742818
1.078244273
0.8380668928
0.7599621371
0.6153669487
0.5411472917
0.53802582
0.568166467
0.4966022214
0.6141895803
0.5763162077
0.7193602219
0.4392834201
0.4340268613
0.4128947054
0.487812169
0.4094668078
0.42873115
0.4221597925
0.4429108476
0.446113809
0.4049704472
0.506401017
0.3557098658
0.4408442915
0.4369400623
0.4537606771
0.5228480342
0.4359088744
0.3983278985
0.4069315224
0.3788094871
0.3737243958
0.348485428
0.3426454728
0.3696135765
0.4672841882
1.996936803
13.83225054
8.085880342
5.623135955
2.565861173
1.536768177
0.9734605088
0.9047097331
0.8575442229
0.5909721418
0.5656176146
0.4963868331
0.4637009895
0.5590179857
0.5771615027
0.5371000677
0.5654013616
0.4386497662
0.4210608625
0.5135790835
0.5949404105
0.4842155214
0.4527983852
0.4155714776
0.4050275439
0.4228507398
0.4090357085
0.4203331777
0.4131258265
0.3269965211
0.4496946602
0.3902334892
0.4242513191
0.4480774408
0.3329234659
0.3171887239
0.4145565908
0.3894318897
0.4142503317
0.3588548708
0.4050753889
0.5430593926
1.578326165
11.22180828
7.368443436
1.58674164
1.507978363
1.382821172
1.362650165
0.9364012346
0.7952807212
0.8362112211
0.6730669765
0.78537391
0.8885620162
0.5903342775
0.7222929966
0.4782408483
0.532876212
0.6366724602
0.5227837563
0.5014623768
0.6105721225
0.4887352747
0.4278064327
0.3894916303
0.4773960973
0.4492450701
0.4027184833
0.4387887578
0.4703709885
0.3471906037
0.4422141164
0.3660170483
0.3781181864
0.3774480158
0.4025691266
0.3118096325
0.4140415338
0.4330166407
0.4465660177
0.3766621765
0.4466366436
0.4791646844
2.393849634
4.013096867
2.583228296
1.476539151
1.101211832
1.051084364
0.9228012001
0.9197489154
0.7995028117
0.7617150995
0.7163090182
0.5887288439
0.8127758349
0.7072748931
0.6738769962
0.4480595643
0.6280767823
0.5402507899
0.4400768762
0.5037468982
0.3407970319
0.4198511335
0.5289696631
0.474692444
0.3864086111
0.4597765578
0.4032829997
0.4664001278
0.6287723402
0.4556490926
0.3578319435
0.3470870166
0.3599995903
0.3549065126
0.4097012101
0.4269344164
0.524092105
0.5384650795
0.4694946392
0.4575060679
0.4873198224
0.4436261132
1.520906692
1.988300107
1.661369931
1.136491066
1.190016774
1.168661162
0.7119025193
1.042438995
0.8831659211
1.008503056
0.7711325758
0.5066961586
0.6127685624
0.6349558656
0.5291019626
0.4424094218
0.5540250233
0.5241454948
0.4144304972
0.4080906943
0.46058655
0.639714694
0.667406967
0.5021696912
0.445519275
0.428925605
0.4544174882
0.540208226
0.6019538208
0.5537410131
0.4266203461
0.4108016261
0.3354641401
0.4027895633
0.4216903897
0.4204559973
0.5425830685
0.5142293066
0.5370522167
0.514412033
0.6442881377
0.5212453176
1.84827154
5.548705814
2.38114101
2.044251604
1.594374129
0.9066674793
1.097926801
1.400730169
1.383791458
1.107650747
0.8044737931
0.7858547037
0.59750283
0.8170635269
0.5564181507
0.5200963194
0.7317701978
0.4547379752
0.4661597262
0.3687666443
0.5541143111
0.6132159934
0.5707836579
0.4846782629
0.4480046418
0.4432412905
0.3374758885
0.3849278585
0.5403995316
0.5081774275
0.4588178438
0.3930912413
0.4691110187
0.4649279224
0.4557180303
0.3783186177
0.4238794716
0.5019054539
0.7251315413
0.4718959955
0.7124029872
0.6885741681
3.805942156
3.13976683
1.440435141
1.069455551
0.9292503902
0.830213517
0.95155791
0.7376531507
1.053320541
0.6040634286
0.6538742781
0.5958399208
0.5730029024
0.5385457281
0.5737136675
0.6120579364
0.7131255068
0.5444954009
0.6429200886
0.494503698
0.4695626751
0.7043857541
0.4750370091
0.4401035645
0.4626737992
0.381602801
0.4323503509
0.4564947822
0.5035555313
0.4659355113
0.488219572
0.4247918531
0.4329439652
0.4136398204
0.4436398416
0.3939576247
0.4025375199
0.3565227509
0.4529234321
0.4907108812
0.4868390737
0.4419672566
0.8737803674
0.7450088198
0.7687627364
0.5439202614
0.4605496909
0.4969211642
0.4370829085
0.442613098
0.3357174112
0.3668566011
0.3688028249
0.2754804574
0.3017556868
0.2976877009
0.311609632
0.3165358598
0.3182425418
0.3031488299
0.3343940145
0.3568646046
0.2409297344
0.2633626419
0.2974992721
0.3004029113
0.31764468
0.2844022645
0.2321453305
0.2090568803
0.2610511222
0.3922677162
0.312876869
0.3028522093
0.3018748231
0.3202998863
0.3306750084
0.285833839
0.3157911252
0.2378193258
0.2355659728
0.2371273516
0.2010823157
0.3621488722
0.7089697768
0.539930417
0.5150648505
0.4717309357
0.4706299559
0.3147130707
0.3336478677
0.2273946459
0.2842889408
0.2511607561
0.288800819
0.2271330249
0.2005866607
0.2601997818
0.266079198
0.2412227992
0.2287444516
0.2142705121
0.2608785264
0.2038760919
0.2029254168
0.2086422671
0.2057827291
0.2388163676
0.2389414683
0.1969062389
0.1929400083
0.1927279555
0.1934700277
0.2321830518
0.2783062522
0.2805274439
0.2728511313
0.2088633646
0.2222354348
0.1781370862
0.2211254017
0.2192336163
0.2026081865
0.2264108924
0.2262490211
0.3404030756
1.077195877
0.4587425836
0.4263611123
0.4704670185
0.4122387808
0.2566339345
0.2153201398
0.2311384
0.202725064
0.2105744748
0.2515575969
0.1975867527
0.1445792622
0.181017821
0.240143333
0.2172401728
0.1516934824
0.1707289241
0.1715398901
0.1640157255
0.1656731801
0.1681995799
0.1697914492
0.1680452377
0.1903435563
0.1823642123
0.1987808335
0.1733814609
0.2019420103
0.2164302188
0.2090897962
0.2181523641
0.1975013135
0.193179892
0.1984322807
0.2179393339
0.1914835641
0.2254459242
0.1938799282
0.1776163196
0.2284682238
0.2805445808
1.020291374
0.535567784
0.4671872116
0.3106632415
0.3507574554
0.2886580224
0.2295291144
0.2632935069
0.2030002111
0.2277792859
0.1876150172
0.1819806536
0.1511368449
0.1341359463
0.1709553453
0.148254218
0.1302655147
0.1341905682
0.1670817856
0.1593627666
0.1576270371
0.1626471068
0.1779284546
0.1656330891
0.186991183
0.1824347551
0.2131979713
0.2071061384
0.1769585169
0.1919348301
0.2320841853
0.2221592185
0.2222842446
0.2530953574
0.241643395
0.2345010549
0.2649716516
0.2277505205
0.2196370429
0.2026616926
0.254994145
0.3698819325
0.8748272915
0.4624616968
0.4961918337
0.4113321233
0.3132971529
0.2704539017
0.2255181877
0.2093422505
0.2328878757
0.2309094238
0.2076560791
0.1744221417
0.1402731363
0.1238173777
0.1313907289
0.110247034
0.1147696112
0.1181462452
0.1327867756
0.1311756739
0.1630341606
0.1497729813
0.1588781033
0.1394504712
0.2045751594
0.2528580702
0.2340073411
0.2191927578
0.2192914898
0.2111150139
0.2550176546
0.2569443582
0.257227884
0.2813854603
0.2739516429
0.2185475986
0.2167794842
0.2218126731
0.2576656337
0.2241029734
0.2476560589
0.3115286755
0.9310099439
0.5286080134
0.4326154422
0.3256748895
0.2773257738
0.3215857116
0.2254451741
0.2076578467
0.199847154
0.1718558827
0.1660636271
0.1454367272
0.1418572111
0.1091787287
0.1029484721
0.100000372
0.08264887408
0.1007609194
0.1408717548
0.1437846877
0.1618437575
0.179803605
0.1757945865
0.1450625274
0.1759988222
0.2504061591
0.3008863504
0.2783005095
0.2438915173
0.3208782185
0.3540531798
0.2879093504
0.2626196271
0.2744706951
0.324521959
0.3116156742
0.2212290621
0.2104544782
0.2373834378
0.2856089021
0.2967448174
0.3521915732
0.8793996607
0.380961173
0.2962050899
0.2670737824
0.2334857434
0.2311309601
0.190872797
0.196503883
0.1722543871
0.1720541236
0.1450597196
0.1079581755
0.09748837171
0.08900798828
0.07195101756
0.07594072598
0.04165284591
1.82684085
0.5325216043
0.5093969534
0.4581623294
0.3530114718
0.3407068075
0.4915880828
0.3601422998
0.3538159455
0.347356045
0.3295973872
0.3538253472
0.3661225928
0.3382277853
0.3117205994
0.3107194301
0.4300534147
0.7531374509
0.4094781777
0.2800131262
0.2167845882
0.206236835
0.1997064208
0.1865525922
0.1513264605
0.1466555451
0.1182410857
0.110461873
0.09156796975
0.07341301544
0.0672530584
0.04107880295
1.047590248
0.695091336
0.5665982484
0.592165008
0.5906384665
0.6656558259
0.4561885538
0.4112693208
0.3913853193
0.4628791926
0.3825975884
0.3247265931
0.3354480837
0.335160866
0.4296295183
0.7487597803
0.4327355789
0.3259143737
0.2519141059
0.2047324774
0.2049251502
0.1466782311
0.1088767473
0.1360064767
0.1005200175
0.06862184883
0.08071834248
0.04396614511
0.0005066539801
0.000522502068
0.0005284346742
0.0005285147925
0.0005319935041
0.0005309062435
0.0005241848895
0.0005111905168
1.094539914
0.5716264795
0.8733819356
0.7032170044
0.7978831261
0.8315894539
0.751497821
0.427925892
0.5874891525
0.4825687089
0.4967562901
0.5325656443
0.5084806827
0.6806495714
0.4176766713
0.3064597018
0.2499839437
0.2029094443
0.1634979138
0.1468321966
0.1179654645
0.1079154222
0.07628334156
0.05056493047
0.0005153038237
0.0005426816589
0.0005726803849
0.0005840211576
0.0005934569918
0.0005952484443
0.0005981766284
0.0005940882539
0.0005815246227
0.0005635727202
0.0005347965564
0.0005124833472
2.048102539
1.244285681
1.364893277
1.615694158
0.8872598236
0.9700871569
0.655245806
0.4988319588
0.5966491413
0.5554709778
0.5881464258
0.4991880029
0.3026938064
0.2358613142
0.2195284664
0.206068669
0.1541809773
0.14422384
0.1189740821
0.07881208396
0.04953578392
0.0005080426272
0.0005423595383
0.0005730479744
0.0006005158939
0.0006296722583
0.0006442826183
0.0006579253962
0.0006601161417
0.00065751746
0.0006467864503
0.0006394001261
0.0006255422435
0.0005965743327
0.0005709309977
0.0005351201781
0.0005044269915
3.21296773
1.407555572
1.412770784
1.538363455
0.8335849345
0.8857049891
0.936954812
0.4224571525
0.572251931
0.499157661
0.6926980197
0.349478222
0.2645356963
0.1955358342
0.1861981293
0.1798682172
0.1200227365
0.08718008678
0.05049026382
0.0005158849452
0.0005609093297
0.0006035246053
0.000630890285
0.0006539375923
0.0006853752912
0.0006979088861
0.0007052335959
0.0006961220796
0.0006978089991
0.0006962091291
0.0006902180489
0.0006737575177
0.0006528676952
0.0006174831461
0.0005910366745
0.0005514806941
0.0005108844555
5.279389578
1.479337597
1.332660572
2.699568705
1.303809906
0.8489794992
0.7060521745
0.5096720861
0.5819763632
0.62117103
0.3088347519
0.2479054519
0.1796803213
0.1687123812
0.1226021957
0.09378036473
0.07384144308
0.04553776615
0.0005153050178
0.0005656360734
0.0006053395226
0.000654357418
0.0006811910728
0.000704856809
0.0007029436614
0.0007104154566
0.0007048407425
0.0007003746037
0.0007012992124
0.0007007227209
0.0007054321616
0.000705329413
0.0007022501618
0.00067625553
0.0006410812986
0.0005958672368
0.0005521080116
0.0004984643045
6.681577137
2.497290006
2.864395656
1.409927596
0.8612042442
0.7968618754
0.6310966859
0.6120337388
0.822083471
0.5264843427
0.3347988438
0.1993157408
0.2066648276
0.1465460662
0.1106659634
0.08501677536
0.05481278527