/*--------------------------------*- C++ -*----------------------------------*\
| =========                 |                                                 |
| \\      /  F ield         | OpenFOAM: The Open Source CFD Toolbox           |
|  \\    /   O peration     | Version:  v1706                                 |
|   \\  /    A nd           | Web:      www.OpenFOAM.com                      |
|    \\/     M anipulation  |                                                 |
\*---------------------------------------------------------------------------*/
FoamFile
{
    version     2.0;
    format      ascii;
    class       volScalarField;
    location    "3.996";
    object      mct_O2;
}
// * * * * * * * * * * * * * * * * * * * * * * * * * * * * * * * * * * * * * //

dimensions      [0 0 1 0 0 0 0];


internalField   nonuniform List<scalar> 
50792
(
31.82656113
5.094999053
2.613882029
9.944775945
8.225496528
6.008643077
19.59322707
4.131723967
3.87192459
6.477825197
2.722448742
3.473404688
2.315542445
2.742756175
5.632059787
1.927382761
3.113347561
2.835298211
4.743191551
4.555304162
4.847095647
3.516972146
2.791594967
2.865847723
3.198483421
3.884729389
1.162077846
1.772339909
2.244897264
1.954106281
1.724274569
2.643607148
3.706355893
3.848771733
1.589142082
3.334125767
3.424000145
2.555378242
3.288274048
3.344431532
2.822683055
2.926034215
6.72744576
59.27851912
51.23343613
37.39279007
29.175566
21.86566952
4.807964334
2.864781302
9.057866302
2.903510558
4.739708452
2.778582553
3.111770478
4.138059358
4.139163401
2.711444895
6.051304992
2.828748783
3.749559345
2.289083829
2.114163984
1.752073586
1.785018145
2.611771345
2.916831875
6.168122019
2.940145949
3.764625755
3.496049736
2.004167485
2.549166981
1.582625961
2.304762938
3.306676595
2.31063271
2.267242975
2.487566395
1.530719727
1.738386527
2.450088388
2.938229753
4.327524372
844.4768388
156.9642557
58.49429487
54.21336719
36.3979749
29.67801283
2.853184777
7.597048794
17.38878185
3.463030946
7.968291074
6.410951918
4.408839712
4.858307927
3.74461283
5.884260994
4.538145604
2.206657777
2.865704662
3.439958182
2.64450753
2.276764654
2.852221263
2.210404795
3.465540888
4.453769956
2.661534438
2.223070783
2.44609869
3.688025618
2.761226157
1.277456274
2.284512796
2.867476005
1.820956208
2.510665829
3.220531239
3.311467989
2.338196262
3.404571906
1.718969857
2.096952568
36.24445993
136.2667031
60.86525698
44.00682672
35.51476173
24.42141396
19.67681181
19.09127342
4.378506426
7.01616171
3.420580855
2.636732706
5.00794798
5.098356577
4.190622127
7.736485888
1.842502466
3.767172252
2.466012108
1.586669072
1.804966433
1.811917139
4.370490218
2.884607774
4.199237031
4.925215803
2.581741312
2.075891116
2.60524369
3.05645192
1.838250447
1.810505943
1.694074903
2.808354694
2.622565865
3.696711548
3.320698904
3.943324603
1.860987252
2.016675437
2.826535601
4.591661681
16.17390718
80.51578611
8.076132404
6.536778608
14.93852163
17.19135701
3.429165072
6.024956721
2.950548108
6.68574309
3.08404102
5.248479239
3.601977092
3.616606585
5.351803803
3.763847858
2.500067726
4.255182049
3.44991931
2.765292763
4.741546733
1.968105803
1.852839827
2.135367764
3.111282591
1.618076677
2.036052685
3.815525254
2.228749957
1.601731712
1.837650486
1.784472382
1.759093223
2.837701647
2.130101083
4.621139294
2.920055068
2.846163369
2.148979022
2.601046514
2.301097396
3.171496897
202.1329117
86.03137833
51.79594007
41.20551826
5.84301294
25.44305496
10.4970983
3.395228375
3.560980992
6.964805046
5.362081564
3.576751294
7.983558917
4.079887808
4.315537307
3.415841103
5.229310398
6.615659963
3.848082252
2.797765751
3.958401346
1.671965166
2.650388645
1.983203368
3.787079677
3.112101593
2.748574785
1.893799633
1.749614654
2.709371633
2.588421
2.186512015
1.676686443
2.071561144
2.213566805
2.996817868
4.407375671
2.832310529
2.747197823
2.032029952
1.74011753
3.729301859
22.08911597
722.6338907
436.6235161
77.44634887
48.47642924
13.31810764
6.019849162
16.01591955
6.276921561
5.750762122
6.120568072
6.252090555
3.515810618
6.949413886
5.72276693
7.129731891
3.5541427
3.522701579
2.532178623
2.017336747
1.823082166
3.177120344
2.969855461
3.253703141
2.534128722
2.367685081
1.646632874
1.836993096
2.214069886
2.624299238
2.497515862
3.509142654
2.356719918
4.967574797
4.101843621
5.397877311
2.435401956
2.582247238
2.673100599
2.091328868
1.733082699
2.697380096
446.5116119
92.76611848
34.76035062
21.66043314
18.31743793
5.531949998
6.500535923
4.80770662
9.268010589
3.471677167
3.874285561
8.786595424
5.789843368
6.281702321
3.462703726
2.832561858
3.942381007
3.623123238
2.237381963
2.364348696
2.031395463
1.881904643
2.266206743
2.454318311
2.534023905
1.368200389
1.775878101
2.175074048
2.921931998
2.263686177
2.095926227
2.307166729
3.001816754
1.92073032
2.631859576
3.269132144
2.50652802
2.786985707
2.039556073
3.259842259
2.224475114
2.129541288
191.1270611
52.02315784
9.360685206
37.00411555
29.45758215
28.22694292
19.31117252
3.769329751
9.647080174
3.519591679
6.802330646
4.307836391
9.165127482
4.895478014
2.751303854
4.890315394
5.951824704
6.480715058
2.907932251
2.367408771
4.165883472
1.551616308
2.575461552
1.83595136
2.786545485
4.315586463
2.902275675
2.417423017
2.094476274
1.482715326
0.8823861268
1.393349187
1.669009777
2.180826967
2.250242852
1.5648427
1.830672021
1.410382515
1.884354359
2.857715778
1.580321933
3.391795186
28.63391963
104.3895728
8.858546347
45.22905812
24.879751
15.44838231
4.714815614
9.095768629
14.96127152
4.223707629
4.472668894
3.367483219
4.16180858
4.194774924
2.84112591
8.631753553
4.26371437
9.990073847
3.669857541
3.152238852
2.445404011
2.34555745
3.483712773
2.264586677
4.883432458
4.577656654
2.833830377
2.819311455
2.026368227
1.253567226
4.087569687
2.704316166
5.361964349
1.63621279
3.343376975
3.432599664
3.558835281
2.373983275
2.075961573
2.666060123
1.992005458
3.452743281
24.35578927
0
15.93889358
126.4699445
51.33437636
30.61327379
13.25629122
6.408565727
2.753225928
8.928694135
3.754081352
11.60600739
2.739570751
3.549312231
1.994632959
3.575317971
2.497262729
3.905710742
4.085537238
3.670537096
5.156322088
2.23489864
2.215601799
2.565145236
5.270028117
4.038209867
3.47143017
2.552301647
2.0590175
1.994571145
2.702072229
2.973996858
2.72045839
2.68428902
1.936403035
2.823840903
4.00743735
2.361118794
1.916617171
3.124350942
2.758523422
4.774195514
38.30416284
8.55534662
14.96018371
33.12786548
21.96866276
19.06320447
6.013135317
7.031807226
10.21562222
9.993203517
6.894960252
2.502642936
3.121182953
1.76633138
2.799239372
7.83721681
4.753945745
2.439893346
2.186778188
2.372305408
2.141983131
2.943430593
2.709401488
2.20979905
2.983213043
1.816183635
2.154166146
1.57021834
2.238070454
1.673100769
1.760375631
1.841927565
1.70417466
2.151384082
2.388100951
2.105570971
1.93928087
1.947074065
2.26877598
1.875531593
2.696664753
2.848421966
6.777464935
10.14848803
33.11167853
24.28007846
20.32875392
6.536590628
2.51630918
9.69646334
5.721615161
3.620132471
5.698066048
7.406641791
4.691831725
5.355680658
2.909292779
5.918057514
4.194551339
2.926569873
1.733734932
1.525472646
1.871705477
1.842513295
1.506991893
2.348340621
2.313812832
3.188226551
1.802153302
1.9430277
2.107633176
1.826288117
1.717710909
1.625729786
1.280405438
1.418999292
1.488837442
1.496976037
1.48854211
1.723382597
2.323956627
1.750667012
2.679049436
2.654268966
4.11171998
3.923658843
23.19502106
17.24136422
14.99469471
14.12402497
3.370119349
2.626254161
2.278399802
12.79953466
4.036952218
2.979653136
11.64449921
3.572760979
5.086840806
2.420817491
4.926015204
3.089402435
1.818432345
2.574695501
4.266336851
2.440301712
1.416835937
2.113215447
4.096057046
1.80390797
1.881122026
2.042823809
1.456831405
1.818495116
1.7518233
1.416229809
1.301263375
2.706777354
1.645739914
1.306048465
1.260061468
1.257344536
1.29488115
1.658948421
2.08514706
3.478890387
2.765442864
36.55949708
22.98560031
20.81826494
17.66509638
10.53435988
4.241937154
2.415929713
13.68583996
5.45867111
4.499641661
5.102375857
8.892754072
3.186566054
4.964736238
3.58496843
5.27747805
3.394678507
2.529111078
3.195265901
5.616073522
2.474664866
1.886930792
1.543527305
1.90234967
1.547184313
2.25324591
2.16431797
1.940467595
2.210114306
2.747065371
2.143704407
1.219851941
1.434816834
1.237639835
2.027177468
1.824914234
1.790457227
1.779398439
1.722510998
2.380767963
3.755047444
15.73734704
72.16107532
45.96609643
42.49393211
13.04507784
8.22027814
8.090077961
7.090628907
6.248469618
4.253752323
4.382960561
4.498899695
7.541295479
2.787837521
3.041885457
2.163981305
4.332858394
2.288944967
2.782988447
1.603900464
2.821460351
1.800589887
2.12288951
1.538813361
2.415702824
2.577428661
2.128691698
2.159704508
2.297686566
2.067463839
3.394524536
3.135503501
2.476786073
1.855354927
3.706586201
2.577187087
2.047865389
3.689495569
1.895743527
2.144093433
2.233323093
2.804146498
21.43452853
132.4538076
70.85203894
37.4767698
24.53324296
17.61558537
5.14744976
7.616273869
3.962989639
2.334548404
5.747253914
5.522657331
4.681276632
2.769628292
1.727122364
2.374684919
2.12984046
2.375050234
1.727064908
2.191593994
3.908201583
2.346536486
2.493038458
1.730046214
1.732585663
2.599675157
1.708620097
1.815007277
1.573688927
2.181449725
2.402269616
2.078630481
1.779821774
1.832979063
3.165612573
1.852456599
2.421607282
2.2324355
1.751644585
1.438037791
1.749728906
3.236724436
8.268053241
86.6804221
32.95838914
22.9797314
20.77947304
5.684673079
17.6263959
7.666442712
3.583631098
7.775341712
4.559107854
4.111675524
3.225486958
3.999237597
7.498509112
2.181677507
2.865007219
2.013084683
2.203563954
3.263039843
4.050261691
2.588640468
2.601583182
2.213958048
1.724467018
2.468664193
1.680654234
2.969749305
1.829437438
2.713977498
2.193204464
2.242403661
4.462162808
5.015745902
2.975012324
1.904474608
1.640425302
4.534666813
3.983989723
1.412016039
2.257714774
5.576270026
12.00439121
56.88232059
47.21581903
10.84250685
29.19173414
6.570492035
3.281574143
7.438656471
10.06740303
5.00600196
3.358606118
3.398645048
1.864011271
2.016159384
3.380563565
3.394858426
1.929827815
1.57266257
1.871955641
2.357713505
2.273071223
2.491081863
1.692476151
1.367460961
1.763340166
4.198640195
2.192033664
2.209328682
2.06491273
1.809796854
1.643936933
1.577447626
2.286387509
2.717419443
2.578097631
2.578140789
2.331377707
2.772512779
3.66357599
2.198646335
2.63378515
4.812396753
119.3750587
72.05546519
34.46090457
5.961353293
6.850767871
3.952629386
3.735117923
10.59335031
7.783898
2.422561754
3.304026635
4.291453408
3.36677845
2.946519934
3.07867155
2.665884037
3.101897752
2.25113976
2.509519752
1.676664496
2.417101603
2.89364563
1.848518045
1.662562845
3.066315115
4.4690242
3.64157574
1.923570024
2.526331677
2.45165234
2.008466359
2.755643775
2.174771328
2.561190768
2.873451908
3.416669293
2.497216528
2.126805571
2.506282037
3.1847428
2.683545583
3.302107559
7.235152845
45.8885008
7.983609618
24.53361538
3.385408327
5.28114095
7.619151933
4.826731248
4.232362126
9.863114675
8.845486512
3.437614896
3.886075401
4.497678308
4.161495932
1.917362408
3.330889665
2.169830718
1.87950887
1.629753819
2.175152165
1.974547748
1.754940663
3.385236737
1.674767279
2.214402228
2.113842743
2.560884302
1.760822108
1.942671496
1.712119685
2.350744834
2.563505467
2.849878831
2.880884264
2.245920728
3.936332224
2.581014979
4.370370504
3.667870836
1.964441112
2.663026833
20.09816493
89.48699969
4.43327431
17.02372857
6.843410266
3.75383047
4.22261922
9.366077641
5.17746581
3.981005239
4.070386978
11.04056416
7.191657918
8.034529003
3.539212693
4.035149726
2.934022403
2.079101627
3.166746745
2.185860894
4.318673088
4.100642056
2.715652685
1.36957168
3.946173138
2.444210725
2.628944965
1.915324965
1.929491533
2.80081509
1.98622146
1.699290096
1.380500419
1.275570461
1.914246174
1.685324716
2.398033815
3.012599917
2.830572486
3.13582109
2.941085714
5.000513053
0
668.9171218
74.64094596
45.94005268
5.306459867
7.097109615
7.073977084
3.432324445
4.839574648
5.023734181
2.386562065
5.385579695
3.414099037
3.431672273
2.672661288
4.591024552
5.73976821
2.552184554
2.606450168
5.82353086
4.310988292
2.083919694
1.771219342
1.663126303
2.095259254
2.4094258
2.688315753
2.185049991
3.643074866
3.619673905
1.787289123
1.361111294
1.300122732
1.497844219
1.271648226
2.644129753
1.737738677
2.230067834
1.741391242
4.195476414
2.621646015
3.201589925
5.615568012
38.26963587
8.469245741
4.698875755
12.56532061
21.35812055
17.03366742
7.612823163
3.113409554
4.787687485
5.169891311
2.950222372
4.151803252
3.029841343
2.300830059
8.23877258
6.480764171
1.775616298
4.044872176
3.121979577
3.960090817
3.504683959
3.043339528
5.096045154
2.446759329
1.659076347
1.771575738
2.962357361
3.623614783
2.731203959
3.380773936
1.647879666
1.582598955
1.444933053
2.769290008
3.988480447
2.318855636
1.929746595
2.012555543
2.464455556
2.259041378
4.527161055
9.551619412
13.27250612
9.391515608
33.59300932
21.69516157
20.20438346
17.09625355
4.509947543
3.677220419
5.466634421
4.081745123
5.777947663
3.179891882
2.447210886
2.985916127
4.952449228
2.172578784
2.683735229
3.092829061
3.304872094
3.503755267
2.162089103
2.432093435
3.811847145
2.385744684
2.021886764
1.847399466
2.229312339
1.801576851
3.623474621
1.667160584
2.131996379
3.965378962
1.766117276
2.135278087
2.251772603
3.266211275
2.910868059
2.708304236
2.35387409
2.642314426
3.547740901
4.873901857
12.75544168
49.19503919
45.0773561
39.00926826
32.46963786
3.592651132
16.24841196
4.102154078
8.570825835
13.72751035
3.879829408
2.820498017
2.111542157
2.24541384
2.724839809
1.502010083
3.404734658
3.754492617
4.262775407
2.420595508
3.825551101
2.059315435
3.144060864
3.57095491
2.133787766
1.811237651
1.640151057
2.706001416
2.486446807
1.832454472
3.304805408
2.890038471
2.842802821
1.651827117
1.741991674
3.656501744
2.798522358
2.82998919
2.204098709
2.443526107
3.609536077
8.499771376
75.14698018
54.66928625
26.05423171
18.57078653
9.060803354
9.957611219
16.06808228
12.03340911
6.378467594
2.698203109
3.783346759
2.709049477
2.429569653
2.62106184
3.589568911
2.865821414
2.836441373
3.572885925
2.904176709
2.5889232
4.217419061
4.549255791
5.811251355
5.29373432
2.755268016
2.434222637
3.257059577
3.138938192
1.63247414
1.697668614
1.838312002
1.578196904
1.748354202
1.885240735
1.704926745
2.563488618
1.608317011
5.271008586
3.357259961
3.540807171
3.690039517
11.88753526
212.8686974
53.47554962
23.3253214
17.22096617
10.39212212
11.69171701
11.69246816
9.456849142
8.448424213
4.847738439
3.502406336
2.462665978
2.241977668
3.372404252
3.518831348
3.831704099
3.403018114
2.983292457
2.869778355
2.134089018
2.180067433
1.777885197
3.630931332
2.180276929
1.878301448
1.250489535
1.463287981
1.457930522
1.462895762
2.142051373
2.065740542
3.295855894
1.366242283
2.511049876
1.529609335
2.109948983
2.96490931
2.186212355
2.14255519
3.460534541
3.757286947
4.3489983
13.26676795
28.66947198
19.19825022
15.89184804
17.63495053
11.27982182
5.344975076
3.957183451
4.594019314
7.291695638
5.23317775
2.086258412
3.571315744
4.274568088
2.226202143
2.965604914
4.175629622
2.261191595
2.169635343
2.707947324
3.242847835
3.380786957
1.872352694
2.064876715
1.924335469
1.728714536
1.677400012
1.928405651
2.487126844
2.67307805
1.611799775
2.862296314
2.783819804
4.01706836
2.252314482
2.244619851
2.381158273
1.910939798
1.265499465
1.83145071
3.061160941
6.003809759
5.435590527
4.210214689
6.322463308
15.42196274
5.919649541
3.061892948
3.40199196
3.924475591
5.358150663
12.03568878
4.548732434
2.797048373
3.565583165
3.095074957
3.803549481
2.054734984
2.93846391
2.14479806
2.805755705
4.825116189
2.785600441
3.00717367
1.960990217
1.777047665
1.399244555
2.724247084
3.438650801
3.293770721
3.593360591
2.93816816
3.079721932
2.087343003
2.011228125
2.348937879
4.920226612
3.262097035
2.948545073
2.749350622
1.765243779
5.808481041
4.601814062
6.804226848
8.808096971
49.57739188
38.95774987
31.42766493
8.937449011
3.964769276
3.380756503
2.660929933
5.138128511
4.4863431
3.529800888
4.061425015
3.386906158
2.955363096
2.877829248
2.621692338
4.987109434
5.385760488
4.486312029
3.752458827
2.312766301
2.671157082
2.46086581
1.403435604
1.585387031
1.527695206
2.479523627
2.350970863
2.497742347
1.389014259
3.541167562
4.329648265
1.833990077
1.608111646
3.639925922
2.426572188
2.182142618
1.261162711
1.766106284
2.288325748
3.481820331
3.539146202
5.320368861
17.27122147
32.81473874
28.86552547
7.705540915
9.784212227
6.851978153
9.462520476
4.884872018
3.755870736
3.527390525
13.89690345
9.782965383
2.658373519
2.132079833
8.504155914
6.013477242
4.137003709
4.187880443
2.573354784
3.124503922
1.921071786
1.684836175
2.4556056
2.099417446
2.399293659
1.633276154
3.57027987
2.471135284
2.407073056
2.49739775
2.4406941
1.887031371
4.168369879
2.856510243
2.403459717
1.930778577
2.271288241
1.970213529
3.050843412
2.473004737
10.78093351
58.67493878
5.925629276
26.72833666
28.28451977
6.342485028
22.58096621
18.86268167
7.933692572
2.536922198
2.876142419
3.474752923
3.988390124
3.676962399
3.025224115
4.766915199
6.598970918
2.988499814
3.027555804
2.468350752
2.170306908
2.144567678
1.43485499
1.855184316
2.161339153
5.494531991
5.74106576
2.551534801
1.882713727
2.388126203
2.758202966
1.755698344
1.631995531
2.238593424
1.977446039
1.694165298
1.285041915
1.440757753
1.729941687
2.303766728
1.7651769
2.350972997
9.618592145
158.0138154
9.424150079
69.14442043
11.51251632
29.63152878
26.62630894
5.035686467
3.302917539
3.307360111
4.077563045
3.521121876
3.260937469
3.019067335
3.344314418
3.735421243
4.716296269
1.587630077
2.430673697
2.375301738
3.384044148
3.645678685
2.143270925
2.565167823
3.203906348
2.011367975
2.539393645
2.458699381
1.652054886
2.740409089
2.569979478
2.661827501
1.678663514
2.260806137
2.112542172
2.090101679
2.050177146
1.156291253
1.77542931
1.8679743
2.279252843
2.943471572
28.53876228
58.30165371
5.263862778
21.14635653
6.963308215
18.80236585
6.301695786
4.482029459
4.411564561
2.890652123
4.343306898
4.232199166
3.721939244
3.417807331
3.047155696
2.599692055
3.758063105
2.753368242
3.238085399
4.725531963
5.189161368
3.523594086
2.620138406
4.24322397
3.867036285
2.99193571
3.609697648
3.860900671
4.604499559
2.059592201
3.44798801
2.409067663
2.701787104
2.804438594
5.370009786
4.037397669
1.84054262
1.34265925
2.360646935
2.97000738
1.795216921
3.074644241
25.04109668
154.7124314
20.77157055
11.40949636
35.41662679
28.00997574
22.82779441
13.38831792
5.594286577
2.987577096
2.948087013
2.286613934
3.189360668
5.561456136
5.457225181
3.611593399
3.672771604
2.199570665
4.558308281
2.524968711
2.633460192
3.041067809
3.601807961
3.699313937
3.830840315
4.142187978
2.676417611
4.475120704
2.613696079
1.723354301
2.250197175
2.045497851
1.849177282
1.52238286
2.007218212
3.001281449
2.774400366
2.25624126
1.462567863
1.773683454
1.592668446
2.203626899
17.05967573
242.7750857
44.37835926
21.2760239
17.36087134
11.64803526
7.085520776
8.543886135
3.038933909
5.909802979
2.836017962
1.967853767
2.846864951
3.354049267
3.546171345
4.236849309
2.915472329
2.084953431
1.840693176
3.521041707
4.124750527
3.261574625
4.618818703
2.112151132
1.689693733
3.060041549
2.903123981
1.874850103
1.814419877
1.530713065
2.633405808
1.61043204
2.033224375
2.969228694
1.594704193
1.36856926
1.641286482
1.86514739
1.834433784
2.283243496
2.388754448
3.215189928
4.089686723
48.78260918
38.14762611
26.38241826
26.35764403
6.192193054
22.66617703
13.70724535
4.566289339
4.280302856
3.171497406
3.195587504
8.002965027
4.509610358
5.480932776
8.523711294
3.008445785
5.804644046
2.100818745
2.798785125
2.820247004
1.677204074
2.249923665
1.799809991
2.610483772
2.064915005
1.412894268
2.506012867
3.218514744
1.786862398
2.014880159
1.850133532
2.17218759
1.394915666
1.284648937
1.458736462
2.831594487
3.207387041
2.072545261
2.900068618
3.389477117
4.682784659
43.40599699
0
77.01031656
73.24883946
33.60850776
21.29310362
4.424865775
17.17100057
4.57239809
4.560939114
4.494788789
5.578741312
4.88846162
4.802792059
3.057173039
1.9756822
3.4881383
2.950808194
2.673409996
3.15739292
1.997462385
5.859145895
7.074188785
1.969147232
1.709176566
2.16668277
1.267362986
2.301352131
2.617573129
2.02590087
1.742905116
1.161569612
1.258424408
1.66938094
1.912788304
1.67431919
2.173975035
2.339367925
2.508183911
2.386013026
2.673410532
2.057913247
22.73896676
52.90905057
41.25188993
28.58502953
13.84833272
14.65315158
3.471635975
4.53377867
2.833649695
6.337575662
10.9593413
5.02169416
7.404737701
2.800671584
2.149400539
2.640126578
2.714376666
4.115225598
2.597511497
4.55134492
2.328999123
3.242428413
4.930388446
5.221494675
1.926040698
2.924119834
4.473660569
3.765004525
3.643679021
3.707431783
2.091194212
2.290952311
1.930427061
1.768085954
1.629704773
1.506902062
2.959993767
1.699872174
2.042880439
2.453077927
3.008035563
2.776408324
13.20622227
40.22661313
33.05361258
22.52835726
19.00584925
4.49681595
7.752988149
12.1865373
12.08771756
13.46740801
7.772507954
5.934353428
3.047302897
3.419985994
2.415896145
4.974466478
3.292970561
4.216928606
3.70165128
6.231503034
4.276556498
4.210769038
5.153855515
3.388160725
3.199726237
2.262479782
2.634429116
3.144959165
4.370822361
4.534371188
3.336637076
2.641529573
5.788287746
6.701197668
2.233941638
2.371626388
1.800279963
2.193851427
3.645335252
2.43508672
3.632509643
7.150764142
0
96.90058805
62.62998578
58.59093108
7.55767783
12.27354434
5.909157248
4.983600858
15.74726441
4.264211994
3.065947325
6.119142563
3.054573956
4.408325531
9.33897916
6.69042435
7.640894335
10.0885752
5.150356917
5.647098437
3.74890254
4.443241724
2.153474219
2.704171919
1.97550244
1.522657845
4.816008625
6.392273113
4.777018741
3.171742728
5.408614454
3.016783314
3.125137149
3.706748645
2.677940228
3.343103086
2.350392979
1.328872934
4.723294797
3.628835841
3.314910083
3.334443483
4.515343373
3.38154336
9.37989073
3.542892648
2.124186365
3.990375802
5.30481093
3.212436287
1.59368945
1.30780042
2.239349969
1.690490546
1.171676654
2.630705836
1.850284493
1.866002888
1.599622795
2.063393565
1.88197464
1.563542279
1.471185076
2.406120033
1.648229925
1.284761471
1.408124178
1.001181006
0.7830812862
1.129533263
1.658912602
2.023673937
1.545122681
1.597428156
1.447510292
1.60567856
1.488058615
1.66354831
1.717836453
1.357388807
1.663971443
1.398826362
1.679216247
1.738796848
4.429920622
3.147299335
1.69292443
2.340577398
1.628076703
1.179683846
1.367820494
1.046149958
1.202862141
0.7661651297
1.947914943
1.527388698
1.080861998
1.758477149
1.921181565
1.288423733
1.099103421
1.522132393
1.254924388
0.9657209885
1.168683309
1.062654001
1.37795359
1.136304257
1.195482953
0.7954782363
1.074572559
0.7791835314
1.235584211
1.184738428
1.144885658
1.458081382
1.203769209
1.084034319
1.376773267
1.102514377
1.549789796
1.64731957
1.51489372
0.8970642504
1.252484238
1.295918849
10.79301423
4.116496277
2.44338027
2.42698459
2.398619272
1.937452632
0.8770374206
1.208771529
0.8542954308
0.7873070554
1.079055442
1.127469256
0.7409420603
1.143115768
1.724929772
1.284575111
0.8831603675
0.7797675322
1.005565029
1.004616765
1.039234226
0.8932591423
0.8478058768
0.7536398204
0.8102419319
1.133809777
1.088369713
0.9501597876
0.8060653326
0.9509224
0.9306695021
1.444419226
1.655873087
1.35781472
1.297240562
1.195437022
1.084445066
1.200309136
1.28125724
1.062517484
1.168486279
1.351349239
4.141189205
4.755893492
3.071106229
3.041131138
2.232748059
3.044391333
1.767297754
1.453048221
0.7985836239
0.9335113546
1.350577183
1.064177272
1.008016704
0.7021846931
0.8503743549
0.8003186847
0.7364956436
0.7674055311
1.277862485
1.037197407
1.114760865
0.8790613625
0.9696017703
0.7682233998
1.577448319
0.7808494872
1.249893553
1.249097789
1.079920097
1.069331248
0.9502064146
1.02702024
1.115753773
1.472851813
1.336321815
1.299902431
1.256770286
1.24608077
1.686867366
1.003865512
1.060896106
1.8542475
3.945681008
2.172703613
2.737521995
2.892616196
2.059634014
1.688410488
1.07325919
1.909637837
1.035473884
1.090718314
0.9187457212
1.199113156
1.482091721
0.9221230495
1.094524643
0.6174372318
0.5841300181
0.6414712685
0.968289603
1.017634817
0.9051224668
0.8057967842
1.130906786
0.9082389956
1.674283135
1.222278225
1.022961137
1.429921437
1.574591592
1.773861483
1.212372782
1.572571527
2.434936751
1.52656187
2.287252157
1.907103598
1.07633065
1.064852228
1.247064346
1.383747006
1.40475101
2.133675666
5.567839937
2.543373778
2.372728431
1.779675941
2.080803616
2.57779026
1.016361828
1.793325353
0.8320061943
0.9644903852
0.9788315102
0.6834112874
0.6127957566
0.6686624236
0.6426497782
0.4951533365
0.3793119731
0.5196755182
0.8354682031
0.8875136809
1.318668751
1.221366143
1.15857868
0.8529217133
0.8160595031
2.008015953
1.434360438
1.458944086
1.686147676
2.267961736
1.398435474
2.673867973
1.687094644
2.052620752
2.570988077
2.060672385
1.203068337
2.057704751
1.992729081
2.145764469
1.740662373
1.50468489
3.180468358
1.851099562
1.488025762
1.589426182
1.15293392
1.64872361
0.7318915717
1.44677515
0.8241537323
0.9060403339
0.7909261652
0.6744031643
0.571465404
0.5609281942
0.4194367933
0.4807118281
0.2007096221
7.100891075
6.295409165
2.07653552
2.06929747
0.9206468982
2.666771655
2.276512355
1.747119464
1.961040764
2.097939216
1.83958181
1.729054871
1.413302051
1.961949509
2.086015627
2.3164219
1.715409534
5.544637965
2.201193553
1.460907077
1.14264968
0.9022252449
1.056822923
0.8311240266
0.7240131563
0.6066446462
0.4462094097
0.4652130245
0.4572155143
0.3558789127
0.3807819404
0.2709746802
97.32731618
2.656221465
3.050849869
3.355545169
2.356333893
5.34138604
2.33384414
5.423429979
7.310499327
3.435617316
3.075383846
1.877054472
1.74416539
1.687560566
2.694742213
3.460817642
5.716293514
1.877509569
1.14500699
1.095542618
1.013629844
0.6857310108
0.4796408826
0.6200271421
0.6082857409
0.3680176175
0.3748199985
0.2244651153
0.002661105947
0.002831176949
0.002773804659
0.002809128006
0.002828651127
0.002750375641
0.002693062621
0.002651183958
6.100047404
2.954659277
8.05329568
4.786434467
4.363410008
13.23980104
13.00587991
3.210864047
3.796469562
2.85165948
3.507605154
4.423281004
3.927531304
3.219753597
1.773575071
1.520854171
1.338603714
1.129223496
0.9044720946
0.8097221261
0.6094431525
0.5230537508
0.3538857402
0.2339234551
0.002699833572
0.002862975381
0.002945896005
0.003109518492
0.003090707157
0.003143964682
0.00311447215
0.003124407466
0.003041522341
0.002887568795
0.002721682859
0.002653446103
0
12.20101109
29.22540863
13.40746591
5.354473499
5.486821704
2.994589853
3.723049907
4.955624333
3.608483495
4.551172856
3.402868035
1.849054911
1.85003919
1.048405071
1.09393471
0.8684081977
0.5570671603
0.5037285429
0.3408400317
0.2155895285
0.00258157068
0.002838730056
0.003014368448
0.003278176505
0.003316046558
0.003392909105
0.003440809179
0.003477571714
0.003406987761
0.003438082683
0.00334522972
0.003266036904
0.003046522943
0.002948287882
0.00278437848
0.002558243402
8.588450067
41.10277668
33.34942128
27.01086316
21.15327241
19.04010488
7.171912753
4.005433626
7.672161884
5.934823245
4.229436386
1.878479051
1.498444609
1.002816465
0.8806433591
0.8601981309
0.4551137762
0.3859182212
0.2944335884
0.002675453982
0.002972342036
0.00324309126
0.003345702542
0.003479058818
0.003575478616
0.003717300421
0.003708389427
0.003661792581
0.003720778183
0.003646022376
0.003635392411
0.003637782141
0.003484100046
0.003246597128
0.003109786144
0.002822452878
0.002628576586
0
0
92.19927934
41.43905958
8.366702365
3.154612272
9.984052472
3.742521331
4.512858149
4.149314656
1.266802337
1.568839449
1.14285305
1.128383851
0.7019382999
0.4152700757
0.2897014928
0.2264431643
0.002745477922
0.003050907843
0.003269995953
0.003541069092
0.003635207426
0.0036623558
0.003663899296
0.003772211989
0.003670011553
0.003610574188
0.003768255413
0.00368537853
0.003687991917
0.003677143028
0.003676560723
0.00350445763
0.003380699138
0.003105002822
0.002951193698
0.002625783685
193.9710734
118.6367381
80.88805148
39.70943591
3.979954791
4.906578286
2.355450658
2.361811036
4.688848073
2.934175426
1.817587725
1.238817099
1.672927092
0.9210484695
0.6753596613
0.4180422212
0.2223416023
0.002710789678
0.002895436278
0.003201098746
0.003534137563
0.00364192683
0.003788067889
0.003785323697
0.003650258847
0.003584586196
0.003318421314
0.003323854307
0.003329673023
0.003358585759
0.003490448247
0.003670460726
0.003635826814
0.003701005981
0.003562233392
0.003403463595
0.003142062567
0.002764949672
0.002488686328
255.0859112
73.40964457
31.85242183
3.032257591
4.989331832
16.00949441
20.14180686
5.503746667
2.369946135
1.741457817
1.336122346
0.893564428
0.812232255
0.6705665474
0.4868471264
0.2652912115
0.002816351645
0.003154793072
0.003412509432
0.003534427047
0.003779125623
0.003739261558
0.003439741277
0.003127502641
0.002871605712
0.002629986228
0.002551938999
0.002525715522
0.002688256182
0.002880687728
0.003181791849
0.003522088552
0.003666789074
0.003645654475
0.003628202653
0.003299208591
0.003083472392
0.002663925086
0
67.1870629
10.28842927
48.06123647
23.00262335
16.43408637
5.865370601
9.475050868
3.052936105
1.831887034
1.237990881
1.097923311
0.9999468119
0.7533317604
0.4476139626
0.002685271263
0.00304428966
0.003345488583
0.003589234709
0.003702680335
0.003692938958
0.003399056655
0.003029262531
0.002527032876
0.002086385572
0.00183233637
0.001706370895
0.001692834249
0.001849070118
0.002094109494
0.002491976643
0.003011650748
0.003385679561
0.003688603074
0.003739250635
0.003536880927
0.00320922005
0.002859855078
0.002565577129
638.8379779
27.94406671
47.00771001
30.17937051
2.503927989
14.97782595
10.83806294
5.29810556
2.018262252
1.479339438
0.9930509684
0.6791110054
0.42785355
0.2756531342
0.002761455488
0.003183609103
0.003556805605
0.003763359624
0.003776903576
0.003514532039
0.003041475623
0.002387760639
0.001834536688
0.001420713362
0.001166373203
0.001051319809
0.001049344142
0.00115424982
0.00141130119
0.001781625094
0.002349301382
0.003067079327
0.003528618227
0.003748057976
0.00367319272
0.003392456979
0.003094768597
0.002726210135
206.7416036
50.76967395