/*--------------------------------*- C++ -*----------------------------------*\
| =========                 |                                                 |
| \\      /  F ield         | OpenFOAM: The Open Source CFD Toolbox           |
|  \\    /   O peration     | Version:  v1706                                 |
|   \\  /    A nd           | Web:      www.OpenFOAM.com                      |
|    \\/     M anipulation  |                                                 |
\*---------------------------------------------------------------------------*/
FoamFile
{
    version     2.0;
    format      ascii;
    class       volScalarField;
    location    "3.996";
    object      mctToDt_N2;
}
// * * * * * * * * * * * * * * * * * * * * * * * * * * * * * * * * * * * * * //

dimensions      [0 0 0 0 0 0 0];


internalField   nonuniform List<scalar> 
50792
(
563846.1251
529258.2599
260575.4424
255654.7845
196641.9712
132940.3768
108200.6625
148201.349
117262.7188
128041.8848
109427.6237
136712.511
87622.68906
105387.1192
88713.71724
75467.87384
116400.1089
122337.1025
92050.25167
107565.6586
69987.92803
70060.87347
104130.9743
85767.72028
64310.68743
130747.5921
118178.2618
57657.89097
81401.75947
77661.08539
61379.25724
77793.38543
90697.72574
71887.58226
90662.36206
75939.54055
62641.79446
82106.51362
75254.51276
65913.57838
59814.44611
59630.97131
799524.7487
2141553.973
1416497.958
424013.3686
209575.7793
201889.1252
254703.5848
225060.0042
188656.2508
183986.3326
175009.039
184080.0176
161078.5382
104716.4535
87043.01347
102836.14
115955.759
111606.6897
97124.8174
109512.0531
117467.9321
133216.8113
101292.0572
78962.65914
65413.68323
76479.59571
84401.26973
70675.22863
70217.93293
74147.38444
68639.87182
86939.40784
79238.20379
87439.74308
98206.3563
67638.78689
83560.58536
64234.7824
71337.17877
67093.65763
112325.2683
109919.5226
684928.1563
2018157.142
521209.2231
334560.7689
274687.0785
189096.4842
174159.8204
205651.5838
166799.2545
137623.2555
104578.0201
177469.498
92206.9023
111210.8577
102791.8286
137314.0117
101411.4862
87023.18428
73359.20891
74511.21044
81961.66775
104711.5923
71898.61437
72712.22151
88647.13891
71907.71862
79245.56255
137798.9097
72112.313
66801.28546
77449.30469
94927.38285
83136.54963
65864.92164
69497.42399
71798.91574
65695.95452
59594.08121
59351.00847
68404.66071
86707.56029
82588.21559
819834.9097
462012.6838
460330.4129
348986.9053
244655.5494
466551.2173
228010.8196
251618.5059
228385.6247
127369.6496
99338.53461
110866.9077
80851.56022
126898.6717
98805.51842
73510.99201
92583.30983
81308.80626
106021.3213
66084.09237
64622.21793
68474.59784
84521.03681
61262.46303
53444.81707
68008.64334
78320.29235
86332.51136
64375.14168
57924.8744
80493.05483
74440.94122
92443.83405
83450.0144
72120.4983
79326.23989
76947.22156
66449.89958
56203.3509
74165.62514
75213.73521
73816.15269
797892.4921
369155.4813
1808142.346
400619.7162
367396.0496
273707.2243
149368.8002
206181.0148
222349.0993
144509.659
168957.045
250865.2527
127856.6346
150419.4536
93697.0369
93060.9111
89893.39978
77784.64997
69290.98093
69152.71172
70360.1754
51416.4629
57223.04071
69679.91114
53859.50401
64649.90292
71422.35374
77489.32791
78299.4248
66627.4968
64469.88069
108600.5512
79399.16927
89990.22457
87584.57428
67906.65988
74681.2165
63205.90843
59047.24262
76895.78335
72277.41526
84662.2867
309885.6744
950984.6185
291496.7592
374853.8861
373620.7967
293853.6192
278800.6343
253562.3048
183847.1321
206107.1268
193889.2628
102172.2684
127253.1668
109460.1262
129712.1479
117289.8527
106578.4536
110299.7921
71314.88351
72010.9276
68073.3465
63200.25688
51132.85232
57199.2699
80286.92189
73350.56394
74037.79308
63386.60162
60828.62588
90460.10552
59503.75696
93260.96571
76608.31132
81572.14968
82969.22077
64794.28683
81020.05239
75187.38913
83733.21735
78855.77053
87696.54257
105286.1183
580344.6427
2257023.479
525745.689
985647.227
832382.6193
529777.4233
149191.4236
137441.1749
169620.7991
192511.8649
149264.7074
131279.7609
112947.1104
130864.0566
156516.8509
153646.9249
91233.21649
104042.8129
98656.70807
73180.07681
80478.24246
53460.64276
56048.43286
70862.82099
56879.88287
57047.85293
83679.17939
69975.92249
95237.05579
78856.80597
58632.73873
60790.34367
75013.16129
74697.46737
65381.10423
85613.83187
87745.31067
63707.87219
67930.73801
57262.97849
67726.77994
128850.936
453363.8415
806481.0144
1720072.641
1034167.094
898468.1819
373096.696
173094.8359
191434.5712
190891.2004
139782.9546
157275.7534
167649.3552
164863.2919
114317.4845
124727.3079
85235.95666
66846.42578
76030.03301
91448.99109
79054.98455
115838.5352
84390.01533
73994.22778
88921.17736
66751.53237
72281.43574
64487.36435
79339.35522
67292.54312
67010.56054
61645.88028
70535.55552
74756.67339
82666.78887
71429.54395
83669.30737
56700.55686
52412.53326
61786.26546
71983.91927
78160.10787
87009.87615
411472.5568
486806.5585
290603.6113
254578.3023
184373.4093
167347.3108
196515.5358
158087.3553
132313.2855
151000.8884
141196.051
122284.6729
153415.6731
101281.1481
117116.7191
90737.69675
89715.99291
107639.326
88699.11538
81500.80711
94114.12355
72427.37425
107595.9768
108521.9906
71054.13409
59875.59557
80880.37599
71844.24809
83001.02461
69913.51085
99016.1293
74371.85307
63754.18133
78305.03904
63127.92825
107123.1138
54343.28715
55120.57126
65822.44717
53404.79623
77984.08786
110722.3196
322555.5252
2433885.678
484354.3288
508176.9165
171731.8892
178883.3831
237686.7002
153610.303
121495.0088
121128.8351
126271.5339
89601.12034
112579.8787
105705.887
111133.3245
83235.27971
105791.0018
82116.9599
64120.84836
66622.0297
58076.92472
84878.43611
62488.94559
91405.93216
75097.34509
93751.01002
70059.20336
68397.18715
67382.55619
65834.14883
70080.88606
65427.13274
90438.85972
73500.4478
82880.67808
67917.49589
55552.55703
55739.18131
71047.27333
56669.9428
64116.82474
80672.88846
306969.9192
2003647.083
1162068.328
291822.3121
160581.8042
144224.5228
268346.0707
142107.3244
112710.1852
112057.9065
107624.1082
125798.378
127097.943
162063.1386
107953.0785
93643.64708
100891.0003
95324.36067
105972.7558
79224.03318
81003.03151
61209.75667
69135.55409
75042.62288
78062.26677
80799.46577
78331.13525
66576.15019
78105.4617
71089.36519
66476.23995
85288.58017
63510.00191
71408.72768
66760.98015
78479.65176
57777.73341
61588.05917
59172.14021
67572.89286
63908.66197
98237.25858
420139.9919
590863.6307
416482.0559
313532.6129
264280.5759
143533.1987
398379.458
136592.6718
106885.8784
124074.1511
115681.7707
82853.38836
97424.27729
118448.0923
126519.1746
106050.842
92676.06079
93648.01545
65399.59415
68614.17376
80021.81888
68939.89089
76219.96986
93215.2388
95374.6757
91938.53373
74418.13556
88898.11081
61743.94297
82644.3144
64220.35875
73745.85893
68952.96799
97000.68355
98795.35785
88925.86988
90076.06015
72524.66411
73274.04368
75893.86036
85320.36456
132563.7872
367916.6804
2287451.094
1499346.151
626136.1354
283632.4743
177432.8362
245270.4779
176471.1553
131121.7983
140962.9524
214299.9696
82802.1108
96377.36394
103033.0574
165920.9882
150814.012
96075.35695
105348.5027
85823.1301
70145.95833
88574.34102
126501.5783
72139.2302
80864.26403
75199.01771
86117.94374
85299.68799
65371.14747
53354.6282
60180.91622
77444.4852
75893.45156
66728.92829
67383.99788
70744.84782
67609.06135
65718.86253
84606.59336
79833.66455
82894.03206
76036.30913
136503.9537
409003.4513
474301.6361
360089.1346
306098.1654
198541.8023
170749.6028
231315.7098
126053.8038
167715.5556
123726.2486
149303.7176
111747.9987
168782.3537
92811.44243
98421.5501
141638.6884
117938.451
96956.01553
114349.3299
120138.4591
96074.24765
80760.12089
88767.74809
58904.08784
56903.15525
65600.0825
61225.99093
54491.424
60047.69133
79839.35058
74615.16824
67214.71279
75117.29899
77748.94124
89425.24211
56432.97179
65347.7678
87696.36003
78192.69106
83591.06129
73082.69898
97864.60078
290812.6737
1021358.796
429301.3626
293738.6469
275414.4023
227140.1481
153999.2556
185067.9472
133394.0259
110756.5135
126315.9378
121721.1477
143741.5876
121822.1831
97778.27739
103270.8544
138944.8879
90824.64723
77769.06414
82768.26987
107176.5988
88533.03553
80343.90504
70963.99918
74039.49355
70898.58094
101473.1952
79917.34264
70045.25893
53290.03171
58331.55121
66380.0383
83527.64471
84370.71789
64847.63088
68782.92881
64235.10414
60868.73789
66071.1723
101839.3289
79846.86061
121460.021
343369.6712
2942685.5
1752035.647
564904.8416
222736.6302
219800.4845
221876.4229
145374.7464
140360.0357
116719.6657
120935.4345
147881.9167
128176.3613
100980.4449
116461.1528
102618.4041
66720.88942
81393.43329
83738.99542
69112.44236
75119.13005
73251.47446
97104.08044
84662.16911
80138.12962
77190.30525
56578.16359
59763.48732
75224.66667
63397.78179
72359.13172
83739.56558
71957.6689
92249.4356
59125.98349
90826.33477
68381.42399
83029.41107
90498.41376
84701.30324
83470.92014
84182.3042
421621.87
2156704.974
1475209.841
655547.5024
282408.3904
716945.1247
239794.6736
140052.1308
157937.4036
129939.5964
260195.1021
150980.1647
95070.03575
139407.6807
126836.2051
115262.5419
146522.3772
95677.80941
65120.73378
84004.05314
96660.11182
101651.9989
88775.67377
77949.12345
76534.54587
91708.75238
63801.23423
78171.6482
67355.7476
69642.50157
71863.02833
74793.05228
66350.19079
60277.88907
48503.83221
54863.21517
51986.97502
62158.14042
66995.83384
57532.66466
77626.45695
123512.2577
271503.2446
687097.1455
944388.2028
1348225.589
356799.5996
746546.0162
211762.0347
206961.941
134487.4192
129592.9505
150161.0802
138515.3647
140401.9658
132750.9246
105852.4964
93813.86039
102912.4727
94718.0387
62003.52418
61014.44465
80378.2413
82118.15407
89729.64329
65148.07634
92647.05139
70500.44819
90662.39875
101553.9658
107100.7217
100954.3508
82323.01398
84177.07174
81603.10058
77898.30034
65841.74468
56840.77993
53391.12158
66141.22621
60279.63047
75971.15871
77003.9426
133651.2547
344409.8181
3327315.427
432422.4815
1101119.12
327754.2011
214820.5821
154376.5981
237386.9861
153572.2265
129347.8715
104909.8213
134615.0047
129856.9045
102562.6648
75935.03192
91831.07298
98496.24417
94688.13986
81723.75458
72005.5236
84818.3686
80252.18219
87013.42473
59670.55606
75877.41927
71012.38787
54410.19688
63682.86167
64097.82278
59830.34335
66525.5606
58294.33772
74123.31334
71893.2203
64652.73085
62519.00181
54354.17422
65304.20047
77268.04792
86527.1421
80961.55259
120948.6874
242842.8429
1048497.694
570966.938
375672.889
210826.9666
253953.5939
188355.7836
202903.7977
202138.4014
107545.7209
87260.65705
122535.4074
107509.1943
95351.99164
102193.9708
79843.47805
80211.36611
70666.81153
135312.0725
72916.33023
72090.85456
71403.48523
69723.84189
54449.89648
59127.37463
57830.06761
53839.07071
60714.29159
74180.08351
72103.25968
78951.8922
84913.67691
81793.02751
64052.47415
82081.06675
100614.471
73429.1378
77438.11507
69529.96805
79581.6651
83143.8646
91623.94288
169142.6179
2041529.805
405001.612
276069.563
246772.1824
269074.9327
180429.7647
136502.3022
108792.979
101647.6394
120188.2812
80191.99098
106699.4044
54770.93689
84173.73924
86167.99044
52810.61492
62600.73126
70856.13035
65131.22123
50591.65693
62912.74979
71646.10773
65031.8636
68516.78841
70791.09655
59504.53185
62186.52345
62024.85083
77876.82626
73943.08469
75497.98645
68964.27195
78711.25384
81423.93278
73202.07666
82239.60039
68951.04473
86962.4623
110288.0572
91716.67957
106062.5225
256754.1498
2643526.402
637453.7498
343119.3612
284484.1333
321797.6346
208620.3899
189714.5447
213214.4379
175954.729
138849.2779
103994.4172
86616.82271
81614.87655
59592.62943
70967.23889
74960.8723
64715.63596
81011.51901
77301.06496
64579.40387
66626.63019
55780.08542
61752.52616
69410.79563
66539.89765
62091.08296
75571.14991
92538.50541
70912.82183
65132.20502
74067.56358
73048.03485
66688.41832
85954.76473
65486.68236
75856.44615
65067.88504
97967.16551
75844.53689
91145.34093
127649.1201
572728.8234
1302050.033
432164.4004
1235267.649
350352.8988
258885.9313
261732.1834
209383.551
213973.4653
142434.7346
164787.0654
162293.1872
152182.0716
91997.15077
135990.6867
79580.1121
78730.76222
72251.6929
79327.7928
98097.02566
88917.66814
85757.17041
66921.04336
84301.51883
52430.36817
81492.81144
68076.96195
72179.52312
82997.12477
64423.08624
62198.04893
50212.97551
55680.63156
69156.62299
60258.71725
66713.51005
55561.3751
54184.36866
68905.34272
70715.72215
88851.55297
113226.1514
297217.3738
348423.7806
1481768.787
960118.6985
238568.4458
324563.6183
253304.8665
220757.2686
191263.0333
120992.4838
99511.01098
117027.9456
91671.35542
98183.36193
99476.02349
94463.7107
76613.65433
72127.45002
70099.8688
108239.1247
100861.9157
89521.34577
75528.34857
85324.1616
57426.99788
73569.14552
69006.14583
86154.7276
86274.15335
109649.5704
82067.97023
70173.77402
66084.07228
75129.97504
75777.63935
75882.0463
71363.15112
56974.24371
69544.64275
64336.57815
82387.47479
101125.6294
306284.3494
3109995.237
1760179.934
428960.1488
594455.5849
372509.0145
208901.8174
284098.6387
196557.2397
117162.7696
106163.447
102244.588
91877.20104
113085.9695
79431.97793
68195.589
87408.33993
74303.09432
92039.18337
65459.70222
103590.0113
91574.8458
84771.81655
74027.11892
72646.39967
65147.99803
77646.75593
75874.4437
79646.17857
76802.84147
80939.03349
64144.32808
62065.77068
64388.0176
71467.51224
73435.77651
82055.54489
68313.73553
92497.85786
105394.5167
82852.15988
108536.5903
401697.6716
3251211.924
502889.167
997363.2638
303327.3945
190754.1679
170429.3686
162960.2918
195617.1276
136685.903
184396.8709
150481.8257
95163.55434
83412.64953
75761.03641
72399.90497
92193.3221
79227.56631
101560.0414
82495.54967
105312.6317
117466.0525
74501.67085
73585.87792
74965.23394
74405.41055
60238.34008
57255.97033
60651.14376
62439.17973
64989.66462
77961.06079
58320.91127
65027.87252
62335.62073
72797.58321
100384.0846
79981.28573
68452.33772
74445.77669
99168.00424
63218.88927
891470.7889
975649.7514
261487.5168
206496.9673
313902.3568
229923.3872
283836.8655
220561.8716
199835.8848
202253.8525
162707.4849
111863.021
125791.527
88907.10507
90692.00487
89452.45789
64526.61979
65461.04366
72486.53047
60958.72637
66104.87934
88374.42946
81169.63289
76552.75883
60545.8896
80098.1757
64373.05968
63965.92296
53519.07971
78873.70463
61047.98737
62895.51728
69665.94272
63258.923
70622.44493
72928.16436
72097.48069
85086.02837
77967.79727
83138.8616
112052.83
77475.17208
360779.0822
457517.614
479816.7396
203611.6721
198908.0557
147819.8192
190602.4998
205001.5798
179882.1495
204162.6147
134112.5055
110591.1775
215659.8636
92493.50746
87251.17477
83661.1993
72844.57408
72975.14216
80730.45033
73624.09174
62050.53411
80226.66966
89049.548
91927.06197
76296.70839
95942.71934
69851.71899
62917.62473
58318.68567
62912.59293
65919.68892
62632.85958
62782.84044
62894.28741
52936.99306
70789.99975
56460.19626
71146.9927
60999.73344
75029.69892
81469.75222
97082.0155
352269.1793
544651.6836
196841.9682
206462.85
414128.9208
333025.0613
177416.8114
176841.8441
141659.615
144318.8464
126451.6184
103341.1246
106605.6387
96024.24424
85687.30692
117726.2761
87837.23938
62007.00885
90124.91443
69618.28272
71433.45913
88145.6841
81341.23772
70010.60366
63972.17665
73348.0006
63157.35998
80261.45132
58623.59889
56753.56005
72146.36193
79615.8066
63373.76239
85973.59727
79794.96698
58991.61679
70325.43568
69990.32383
68909.05315
79475.05398
73467.67606
71006.37804
529211.3967
770648.0182
408011.0275
255554.1924
399751.7123
260893.1067
330814.0258
155777.1764
133005.9477
255697.8088
124212.571
116686.5451
94502.21984
97270.34887
81338.16813
111132.8124
90169.4638
83145.79876
61138.61642
82453.81653
67075.51725
73464.69222
72858.83083
47303.18856
65801.00372
73086.9826
70312.23107
72005.22806
88997.72903
93616.98474
81872.49527
88858.36057
110692.3989
80518.8116
86964.81541
71286.89684
66804.54989
61183.95844
65429.80766
72062.99651
85562.41333
91301.14615
630470.7852
745582.5349
486821.9208
1062505.427
763324.8572
262508.7603
153046.6674
325483.9096
135633.3688
127344.0038
181969.5174
152272.3756
152641.3834
87739.60515
101176.4143
104475.41
83301.18772
120060.9453
76504.21048
86189.78412
61086.49235
82236.02246
71885.70889
91387.21373
75795.35047
103358.2159
81520.33851
83887.61101
70815.23621
85262.25724
76205.07985
69161.05259
73561.28486
83091.02422
84199.74223
66778.6803
78810.78863
74594.20943
63020.52193
78154.35845
65362.27213
94087.39393
469908.2205
509712.0472
1370385.883
1006229.083
744435.3608
227483.3079
179090.1185
151873.3957
164877.2366
220921.2017
145434.7683
185137.135
142560.8281
178432.3873
109033.0524
96510.50113
86346.66459
86115.48239
87981.6404
66906.32494
53346.79921
61445.67031
66960.876
65588.9266
58545.29214
70564.54406
85198.79997
88139.96448
60394.479
75296.32176
64393.11432
57016.09842
70460.37846
69619.04544
79987.62507
67680.6196
66429.41659
69444.9979
85452.49442
69951.69827
85014.58026
99193.52307
449884.4465
427963.7019
1227643.457
596844.8088
247333.9254
659623.4818
571899.1237
270704.5884
105458.4414
108339.4335
138631.1965
112513.6778
107260.2492
111040.2546
67557.60694
91145.60788
72605.2589
65408.11274
87654.10214
67319.18657
59619.69679
57406.26247
58575.82754
51484.59724
63074.84853
57883.27964
77180.31138
86876.75264
84602.82419
74326.26906
63836.63924
65125.38995
71960.99024
58986.37129
83880.94349
81545.84485
100223.0354
75264.82714
71432.56188
63662.41509
77425.81426
103741.5573
1100564.109
1106819.308
1417544.668
340009.0933
365718.3584
268780.9063
142433.8175
153071.5843
117150.5574
170842.5595
107731.4871
129640.0409
147436.7376
101303.2047
77509.15407
86616.79614
77380.7215
77784.73403
110961.9993
78182.52127
69263.84201
72729.85993
65889.42577
71088.29621
78559.663
67829.1338
61288.65507
71324.81171
67162.44454
81825.71659
83483.59965
77355.86558
70886.45994
78543.27706
63774.05182
76394.12351
88028.59959
77208.9974
81382.74742
73137.82273
80263.2507
97556.99574
616003.2828
2779343.824
1356635.721
263277.5874
150852.0461
185937.0367
166030.7842
130163.5568
168487.769
114525.1469
104285.6087
166141.7022
132175.3004
121907.3079
105814.6578
114551.7096
110785.7188
80834.85808
101575.9161
102134.9843
101816.1205
70116.59223
95589.25818
60538.69692
68156.76491
78027.43473
69801.97659
69863.39988
80494.69283
75398.81125
93900.83541
80611.97117
71987.99117
65394.00485
72092.52478
67916.27981
73209.22714
72163.70547
58842.60404
84668.19546
117148.3363
77742.25248
337383.5861
2323460.166
1272848.076
574355.7513
383329.2089
436134.0124
168686.1014
131214.7353
125850.2889
111740.1972
94546.13966
101983.5737
98851.20241
80971.22117
104166.8931
99173.96327
127735.0249
78579.18183
70744.84039
70508.42847
85454.46572
67974.30891
70376.78244
68683.87788
72374.47209
72494.88169
68155.9801
82021.72974
59051.18263
86384.7932
77194.78342
83642.09731
109618.6874
90932.48143
70916.56302
67880.17473
62956.68385
64040.98784
65724.7427
60476.74143
69225.76559
85286.41572
328758.3029
2137154.609
1423826.377
1096518.483
454275.4227
263770.5009
164505.1685
149382.1336
182272.0364
97539.40682
100941.2791
95559.96005
79221.91473
96241.40918
98982.97058
89652.67632
100203.2856
79943.38079
79505.08997
85718.49221
99861.93348
81730.39227
74387.05852
73919.77002
76498.49407
70879.90978
68720.69434
77898.83995
76623.12432
59460.20549
77503.49956
74458.23136
76870.72455
76274.60809
60159.36081
59106.56113
80708.02789
70612.35849
77687.52841
60664.72721
69607.15818
92986.48305
370888.3089
2137932.977
1310045.011
255873.9583
240267.6007
270320.5748
215940.9066
148079.0434
138923.4871
150131.5633
124234.2889
166099.9855
143554.7605
96972.63009
118872.4927
74186.91148
93100.78295
104158.0889
102105.5911
87238.23311
111906.0762
103056.1522
75329.23862
70885.20367
83170.15306
81829.80669
83345.30387
75849.59427
79622.12113
61691.45247
80909.05146
65191.1022
65426.23379
75329.42737
90152.48177
56627.19186
69124.2601
71595.94723
81880.35282
62143.00502
73711.89143
77076.14945
366587.2572
593697.882
397609.0404
222062.7473
169342.0477
165852.5907
171494.1979
145168.0787
141552.5876
133298.133
123362.69
94791.20017
139036.6317
118962.3362
123776.5208
83292.50054
109414.2652
94213.74559
75360.15516
86286.46115
58813.55457
67539.89419
87021.88425
89662.95178
71507.52874
83212.88198
88746.40936
83434.10314
118913.5765
83942.61122
64419.13942
72013.36338
73081.11185
64596.63832
74537.64954
82887.14251
98849.68507
100117.307
82267.26221
80945.70586
85055.83145
80755.2594
247364.4279
324220.8032
263649.2806
180137.4472
190704.1764
191805.1071
127795.2175
192964.0252
197926.727
171070.0024
123281.2269
81504.84779
98226.7195
120070.4225
103069.9008
75684.17932
100308.7746
85959.91403
70352.58031
65324.59699
82085.45721
113769.6557
110768.9263
81305.08787
83519.99042
71881.46314
73597.57399
90028.3878
102828.9129
93196.43773
76999.50272
71574.84558
58068.71818
74273.01521
81882.24771
85208.26075
94932.08031
110996.3512
105369.044
92787.44346
116859.9664
91683.19446
324265.9172
994901.8906
396479.2889
344971.3889
265938.9118
161968.4337
185044.1777
233388.0097
228147.3341
179364.7537
131381.5643
130534.505
106531.2009
162733.0776
107182.9284
83438.77185
148861.1982
72878.78678
76225.06584
56813.91812
90843.45142
103485.899
91559.45267
81219.88192
75023.2079
82493.46846
55295.02997
62701.0922
87975.88745
81651.28464
75955.44071
66079.93583
74259.67393
72963.87677
85561.78578
64248.72445
80528.96923
96684.72721
135253.4734
84220.69308
129858.3163
111365.321
553249.3965
494500.4484
225443.4922
164426.5414
151811.3329
128160.4533
163561.7762
123933.964
167852.2095
100608.4048
121248.1291
95369.49871
102106.2663
87699.19764
90485.718
96838.12135
113004.9619
84945.95706
104725.9676
78068.34803
76662.52018
124124.9606
99384.96597
75694.68764
101800.1669
80186.45204
69096.91945
73077.32829
81694.52419
77914.64017
79343.35852
70950.54109
72148.73305
67937.13773
75847.8543
63918.74525
71232.59343
90781.92104
71875.06963
80885.11683
81282.64731
72669.5407
156595.5803
146693.1483
127034.0682
94103.73841
84512.32354
81055.4086
68551.96139
73358.30743
61023.511
74368.14471
63036.85391
47114.0563
58721.14807
48192.49248
53746.36388
54912.16065
57437.64123
50814.32895
58167.33172
67170.87123
41157.1512
42741.77005
51851.39185
56213.04726
58790.69961
58882.70657
49209.79424
36781.59234
44475.45731
69401.40744
55861.43872
53339.40874
55095.37636
57259.7897
61562.09434
49213.13515
55250.37558
41106.72377
39522.22749
40819.94144
33243.84753
65312.04931
122215.0893
93633.50934
105381.7789
84653.01097
94244.50371
61060.98094
63119.90198
41391.84733
53196.27917
54671.88635
48403.09244
38105.90788
35121.18114
43688.18081
44311.38911
42427.98333
41427.63066
35734.95045
47100.52921
36921.52926
35043.11186
37041.29581
34738.62256
43292.36131
42680.80239
37408.25956
33613.80199
36892.56927
32860.3263
41374.22777
53730.00789
49596.22092
50517.4838
36920.03482
37885.89229
30422.92845
36953.14262
36230.19639
33514.95025
44391.21587
39432.77042
70319.74403
174579.4953
74057.09064
74191.8065
83636.29352
71381.4822
42722.02484
40725.01968
40816.78484
37881.12861
41151.3195
47059.15695
34152.11987
25623.37851
30780.33393
39973.12615
37438.1445
26205.6811
31117.99693
29576.54865
28138.01028
28273.71157
29674.53838
30435.09772
30955.68216
35703.1903
31215.06868
34955.96697
30532.04377
38544.43662
40046.61708
38615.30867
36720.07883
32169.74755
32224.44745
33496.18902
38313.84556
33241.2026
39774.44704
32720.2635
30482.59555
40497.48372
50776.84763
193002.9093
86241.66488
78811.87386
49642.38087
59453.44553
46090.15753
38142.1465
45914.91429
38712.25944
42924.57389
31503.31646
31454.13518
25652.6103
23823.58687
30597.06288
26013.33871
22594.80699
23218.43751
27547.71079
26958.20751
26336.6696
28523.48976
31136.26646
30169.96866
30523.84916
34155.63124
36786.34838
35517.00974
30329.11678
33491.49505
44091.72841
40441.53798
39619.86983
43642.61631
42064.72007
40849.74104
47921.61717
39847.97425
36542.82998
36286.57826
48138.09397
65876.46908
162642.5688
83503.10676
86356.72382
68610.3679
52795.90364
45910.44917
40619.91391
33616.97854
42830.1088
41734.55817
38337.40516
29094.45731
22218.14939
20414.07743
21426.31962
19176.70164
20362.73873
20683.96351
22080.9546
21671.12353
28472.34118
26323.08964
26636.37796
23660.60894
33648.49192
45647.80134
44175.17239
37033.46101
36490.38953
34484.36129
46344.38225
43870.86667
41672.5814
49262.89156
44653.19736
35391.23584
38879.96119
40131.60467
46652.0216
38296.5698
43117.24433
52022.93629
160377.2587
94960.83422
75313.88732
56830.00427
45609.98508
52438.27307
41232.53087
33852.9049
37412.10383
29985.44224
28727.73846
26340.68295
26288.19591
18650.78754
17509.33821
17867.79262
15066.02217
17818.29159
24171.06009
24476.85231
26494.83125
30161.37415
29670.3794
24980.91975
31974.98112
41183.52288
54436.41039
49362.70176
40771.66078
53573.27712
69237.47497
46436.65576
44417.0674
45286.92884
53055.96689
52337.87375
38673.98779
33855.79264
38739.51747
47206.27574
51009.17303
67882.17977
174405.4488
68209.18121
52708.71546
45859.13218
41662.60391
38268.22212
36958.66617
32523.93617
31053.61837
30302.96939
25378.56898
18444.46785
16807.88182
15130.25133
12435.48145
12959.15921
7494.186417
354449.175
85663.76432
96564.96251
84214.67526
85103.84098
56406.60749
89533.35682
64904.25127
61904.04239
59664.93847
57331.83051
63552.85346
72793.49555
58338.62205
52369.25993
51317.2835
86166.29066
125778.6629
71689.02681
49715.24576
38299.57551
38334.41933
35597.86253
34445.29716
27325.92809
27553.79511
22938.57413
20698.80607
16351.65795
13202.17714
11645.90288
6902.389556
153595.5843
136706.9428
100260.948
103039.1549
114568.0589
108902.2908
81145.80796
65723.51042
62177.87859
77196.39385
63344.74032
56149.24691
59541.12156
59959.011
72984.07149
136892.0358
67255.3578
56269.01205
46057.90479
36313.82733
36842.12175
26720.19841
20114.94011
24802.49552
17264.34686
12067.05369
14654.24577
7793.273277
89.32126989
91.47517852
93.20703471
92.93864681
93.53258307
93.9188131
92.90528678
90.3883005
192529.3979
101567.1069
142491.3343
118394.8279
140226.1779
129794.8562
117484.8394
70605.56681
99264.24449
83019.92876
83321.97518
87363.45957
83467.67004
125831.7647
77734.63199
54808.24969
43975.3221
35339.60888
28555.02195
25723.75381
20936.45101
19435.99686
13909.25592
9247.842436
90.91257869
95.58683754
101.4787659
102.6595267
104.8713483
104.8281627
105.6780889
104.7150774
102.6706057
99.96457341
95.0130388
90.67456981
294684.4878
198815.8848
205842.0908
262749.3335
151764.7747
169895.9677
123710.2464
82160.96527
96920.23357
93747.51119
96852.38484
83644.92678
51923.01023
39327.07855
39746.18157
36424.23336
26737.28689
27699.36946
22153.81453
14592.84849
9158.87024
90.27470892
95.70155204
101.0126584
104.963419
110.9623496
113.5350304
116.1546978
116.2893121
116.2913384
113.7192103
112.8501949
110.4818376
105.90086
101.0646079
94.56054851
89.70550379
754913.3223
233736.6974
228134.6187
247123.8337
131302.7191
140030.435
154136.2403
68081.49547
89928.4319
80071.13362
121506.5575
61718.18729
46000.18868
34622.11536
33632.7444
32364.77681
23151.3371
16004.22962
8684.342532
91.23451812
98.69973335
105.8636507
111.0185563
114.9743693
121.0146005
122.6844949
124.3324454
122.711992
122.591903
122.8389292
121.6328158
118.0987447
114.7114617
108.8353093
104.1600384
97.81615104
90.52166412
754198.5111
211333.9425
198967.1058
427402.5924
219962.2208
168934.2994
113588.6417
85306.3729
96519.94628
105907.2842
58295.52407
42142.99591
30432.58402
28588.1285
21242.65294
17265.99612
14109.36719
8147.304608
90.57106759
99.15097244
106.0436252
114.576057
119.6732279
124.5832484
124.1453064
124.9632691
124.5270374
124.0129392
122.97439
123.5104106
124.5294278
124.5827465
123.9149168
119.6063666
112.9368071
105.24664
96.96367625
87.83926508
1132777.809
393279.839
446112.7245
222820.788
156377.116
135706.7992
125270.7796
119541.2254
142456.4002
94839.29297
59413.50966
34566.20108
34687.83792
25587.77115
19394.03103
15409.10057
10490.47778
90.06298332
98.09068719
107.8628531
114.2621867
120.9533891
125.1991737
124.5334881
121.2384691
119.3685595
115.8048315
111.3505447
111.3140003
113.2060879
116.8584397
122.7259432
124.2744168
123.9794673
119.3605492
111.8962514
104.2326665
95.97807607
89.0216923
5834129.807
698127.9056
174374.303
260400.4013
122271.203
106093.5585
168802.853
149258.3155
73376.10333
49991.35578
40435.41957
32165.61487
26100.39949
19532.22797
14468.71751
7676.117373
96.07949856
105.1274197
113.6416171
122.3788907
125.1229056
122.9783865
116.875461
107.8410066
97.87174499
90.64078312
86.31523766
85.87705908
89.79941952
96.66934267
107.8002792
116.2611654
122.2761908
123.013283
119.4511992
112.4402069
103.7578729
94.23618148
426872.6522
458144.1086
215432.8978
323328.9997
310288.6874
241373.2088
133437.5086
222598.7519
138338.4238
42596.09505
41874.89843
33619.13988
25718.58615
18483.03635
11431.11717
90.63972502
100.3704681
111.4299646
120.3529889
124.2662961
122.5088256
115.6157525
101.6321592
85.20458166
71.89523642
62.83973625
57.73011
57.59110083
62.35027072
72.52742496
85.92340995
100.593452
114.5290306
122.9601432
124.0239674
117.2006324
108.958642
99.23449072
87.77327362
877834.6149
761221.9663
262405.9334
399541.4799
205471.2624
160552.3347
299801.5518
115062.4736
45350.41088
39067.27446
35202.24621
25065.3057
16449.37567
10029.42437
95.06105312
106.30045
116.9493148
125.2176836
126.5644362
117.7188735
101.4016579
81.71345942
62.03184802
48.04353037
39.7793459
35.89587965
35.90129654
39.83772314
48.46242235
62.5000761
80.79321499
100.2401308
116.864816
123.2172432
120.9887687
113.7159966
104.0364017
91.78174833
7076400.09
341595.0135
278569.3825
253972.3679
144311.8611
434645.328
190077.014
71090.28731
55155.59653
35113.62038
28713.52639
28125.06282
15511.7103
91.4321294
100.6662463
111.6097903
120.4065105
127.3103199
121.5700359
107.4421783
86.11985338
61.86296295
43.57913219
31.79959852
24.9795233
22.13741137
22.20375031
25.06288899
31.67595385
44.00846254
62.04083323
85.8200367
106.7632582
121.0650582
122.2913239
116.6247578
106.8152554
96.70808026
83.69807506
203739.266
266757.3613
307687.103
221555.3779
212394.1627
219937.0814
79518.59321
45919.7676