/*--------------------------------*- C++ -*----------------------------------*\
| =========                 |                                                 |
| \\      /  F ield         | OpenFOAM: The Open Source CFD Toolbox           |
|  \\    /   O peration     | Version:  v1706                                 |
|   \\  /    A nd           | Web:      www.OpenFOAM.com                      |
|    \\/     M anipulation  |                                                 |
\*---------------------------------------------------------------------------*/
FoamFile
{
    version     2.0;
    format      ascii;
    class       volScalarField;
    location    "3.996";
    object      mctToDt_O2;
}
// * * * * * * * * * * * * * * * * * * * * * * * * * * * * * * * * * * * * * //

dimensions      [0 0 0 0 0 0 0];


internalField   nonuniform List<scalar> 
50792
(
4546651.591
727857.0075
373411.7184
1420682.278
1175070.933
858377.5825
2799032.439
590246.2811
553132.0843
925403.5995
388921.2489
496200.6697
330791.7778
391822.3107
804579.9696
275340.3944
444763.9372
405042.6015
677598.793
650757.7374
692442.2353
502424.5923
398799.281
409406.8175
456926.2031
554961.3412
166011.1209
253191.4155
320699.6092
279158.0401
246324.9384
377658.164
529479.4133
549824.5333
227020.2974
476303.681
489142.8778
365054.0346
469753.4354
477775.9332
403240.4364
418004.8879
961063.68
8468359.875
7319062.304
5341827.153
4167937.999
3123667.075
686852.0477
409254.4718
1293980.9
414787.2226
677101.2075
396940.3646
444538.6397
591151.3369
591309.0572
387349.2707
864472.1417
404106.9689
535651.335
327011.9755
302023.4263
250296.2266
255002.5922
373110.1921
416690.2678
881160.2885
420020.8498
537803.6793
499435.6766
286309.6407
364166.7116
226089.423
329251.8482
472382.3707
330090.3871
323891.8535
355366.6278
218674.2467
248340.9324
350012.6269
419747.1075
618217.7675
120639548.4
22423465.1
8356327.838
7744766.741
5199710.701
4239716.119
407597.8254
1085292.685
2484111.693
494718.7066
1138327.296
915850.274
629834.2446
694043.9895
534944.69
840608.7135
648306.5148
315236.8252
409386.3802
491422.5975
377786.7899
325252.0934
407460.1804
315772.1136
495077.2697
636252.8509
380219.2055
317581.5405
349442.67
526860.8025
394460.8796
182493.7535
326358.9708
409639.4293
260136.6011
358666.5471
460075.8913
473066.8556
334028.0375
486367.4151
245567.1225
299564.6526
5177779.99
19466671.87
8695036.712
6286689.531
5073537.39
3488773.423
2810973.116
2727324.774
625500.918
1002308.816
488654.4079
376676.1009
715421.1401
728336.6538
598660.3038
1105212.27
263214.638
538167.4645
352287.444
226667.0103
257852.3475
258845.3055
624355.7455
412086.8249
599891.0044
703602.2576
368820.1875
296555.8737
372177.6699
436635.9886
262607.2067
258643.7061
242010.7004
401193.5277
374652.2665
528101.6497
474385.5577
563332.0862
265855.3218
288096.491
403790.8001
655951.6688
2310558.168
11502255.16
1153733.201
933825.5155
2134074.519
2455908.144
489880.7245
860708.103
421506.8725
955106.1557
440577.2886
749782.7485
514568.1561
516658.0835
764543.4004
537692.5512
357152.5322
607883.1499
492845.6157
395041.8233
677363.819
281157.9718
264691.4038
305052.5377
444468.9415
231153.8109
290864.6693
545075.0363
318392.8509
228818.816
262521.498
254924.6261
251299.0319
405385.9496
304300.1547
660162.7563
417150.724
406594.767
306997.0031
371578.0735
328728.1995
453070.9852
28876130.25
12290196.9
7399420.01
5886502.609
834716.1343
3634722.137
1499585.472
485032.6251
508711.5702
994972.1494
766011.6519
510964.4706
1140508.417
582841.1154
616505.3295
487977.3004
747044.3426
945094.2804
549726.036
399680.8216
565485.9066
238852.1665
378626.9493
283314.7668
541011.3825
444585.9418
392653.5407
270542.8047
249944.9506
387053.0904
369774.4285
312358.8593
239526.6346
295937.3063
316223.8292
428116.8383
629625.0959
404615.7898
392456.8319
290289.9932
248588.2186
532757.4084
3155587.996
103233413
62374788.02
11063764.12
6925204.178
1902586.806
859978.4518
2287988.507
896703.0801
821537.446
874366.8674
893155.7935
502258.6597
992773.4124
817538.1328
1018533.127
507734.6714
503243.0828
361739.8033
288190.9638
260440.3095
453874.3348
424265.0659
464814.7345
362018.3889
338240.7259
235233.2677
262427.5851
316295.698
374899.8911
356787.9803
501306.0935
336674.2741
709653.5424
585977.6602
771125.3301
347914.5652
368892.4625
381871.5142
298761.2669
247583.2426
385340.0137
63787373.14
13252302.64
4965764.374
3094347.591
2616776.847
790278.5711
928647.9889
686815.2314
1324001.513
495953.881
553469.3658
1255227.918
827120.4812
897386.0458
494671.9609
404651.6939
563197.2867
517589.0341
319625.9948
337764.0995
290199.3519
268843.5205
323743.8205
350616.9015
362003.415
195457.1984
253696.8716
310724.864
417418.8568
323383.7396
299418.0324
329595.247
428830.9649
274390.0458
375979.9394
467018.8777
358075.4315
398140.8153
291365.1534
465691.7513
317782.1592
304220.184
27303865.87
7431879.691
1337240.744
5286302.221
4208226.022
4032420.418
2758738.931
538475.6787
1378154.311
502798.8113
971761.5209
615405.1987
1309303.926
699354.002
393043.4077
698616.4849
850260.672
925816.4368
415418.893
338201.253
595126.2103
221659.4725
367923.0789
262278.7657
398077.9265
616512.3518
414610.8108
345346.1452
299210.8962
211816.4752
126055.161
199049.8839
238429.9681
311546.7096
321463.2646
223548.9572
261524.5744
201483.2164
269193.4799
408245.1112
225760.2761
484542.1694
4090559.947
14912796.11
1265506.621
6461294.017
3554250.142
2206911.759
673545.0877
1299395.518
2137324.502
603386.8041
638952.6992
481069.0313
594544.0829
599253.5605
405875.1301
1233107.65
609102.0529
1427153.407
524265.363
450319.8361
349343.4301
335079.6357
497673.2533
323512.3825
697633.2083
653950.9506
404832.9111
402758.7792
289481.1753
179081.0323
583938.5267
386330.8809
765994.9069
233744.6842
477625.2822
490371.3805
508405.0401
339140.4679
296565.9391
380865.7318
284572.2083
493249.0401
3479398.467
0
2276984.797
18067134.92
7333482.338
4373324.826
1893755.889
915509.3896
393317.9897
1275527.734
536297.336
1658001.056
391367.2501
507044.6044
284947.5655
510759.7102
356751.8184
557958.6775
583648.1768
524362.4422
736617.4412
319271.2343
316514.5427
366449.3194
752861.1596
576887.1239
495918.5957
364614.5209
294145.3572
284938.735
386010.3184
424856.694
388636.9129
383469.86
276629.0051
403405.8433
572491.05
337302.6848
273802.453
446335.8488
394074.7746
682027.9306
5472023.263
1222192.374
2137169.101
4732552.212
3138380.395
2723314.925
859019.3311
1004543.889
1459374.603
1427600.502
984994.3217
357520.4194
445883.279
252333.0543
399891.3389
1119602.401
679135.1065
348556.1922
312396.8841
338900.7725
305997.5901
420490.0847
387057.3555
315685.5786
426173.2919
259454.8049
307738.0208
224316.9057
319724.3505
239014.3956
251482.233
263132.5094
243453.5228
307340.5832
341157.2787
300795.853
277040.1243
278153.4378
324110.8543
267933.0848
385237.8218
406917.4236
968209.2764
1449784.005
4730239.79
3468582.637
2904107.703
933798.6612
359472.74
1385209.049
817373.5945
517161.7816
814009.4355
1058091.684
670261.675
765097.2369
415613.2542
845436.7877
599221.6198
418081.4105
247676.4189
217924.6638
267386.4967
263216.185
215284.5562
335477.2316
330544.6903
455460.9358
257450.4717
277575.3857
301090.4537
260898.3024
245387.2727
232247.1124
182915.0626
202714.1846
212691.0631
213853.7196
212648.8729
246197.5139
331993.8039
250095.2874
382721.3481
379181.2809
587388.5685
560522.6919
3313574.438
2463052.031
2142099.245
2017717.853
481445.6214
375179.1659
325485.6861
1828504.951
576707.4597
425664.7338
1663499.887
510394.4255
726691.5438
345831.0701
703716.4577
441343.205
259776.0492
367813.6431
609476.693
348614.5303
202405.1338
301887.921
585151.0066
257701.1386
268731.7181
291831.9728
208118.7722
259785.0166
250260.4715
202318.5441
185894.7679
386682.4791
235105.7019
186578.3522
180008.7812
179620.648
184983.0214
236992.6316
297878.1514
496984.3411
395063.2664
5222785.297
3283657.187
2974037.849
2523585.198
1504908.555
605991.0221
345132.8162
1955119.995
779810.1586
642805.9515
728910.8367
1270393.439
455223.722
709248.0339
512138.3471
753925.4357
484954.0724
361301.5825
456466.5573
802296.2175
353523.5523
269561.5417
220503.9007
271764.2385
221026.3304
321892.2728
309188.2814
277209.6565
315730.6151
392437.9101
306243.4868
174264.563
204973.8334
176805.6907
289596.7812
260702.0335
255779.6039
254199.777
246072.9996
340109.709
536435.3492
2248192.434
10308725.05
6566585.204
6070561.73
1863582.548
1174325.449
1155725.423
1012946.987
892638.5169
607678.9033
626137.223
642699.9564
1077327.926
398262.5029
434555.0652
309140.1864
618979.7706
326992.1381
397569.7781
229128.6377
403065.7644
257227.1267
303269.9299
219830.4801
345100.4035
368204.0945
304098.814
308529.2154
328240.938
295351.977
484932.0766
447929.0716
353826.5819
265050.7039
529512.3145
368169.5839
292552.1984
527070.7955
270820.5039
306299.0619
319046.1561
400592.3569
3062075.504
18921972.52
10121719.85
5353824.257
3504748.995
2516512.196
735349.9657
1088039.124
566141.3771
333506.9148
821036.2735
788951.0473
668753.8046
395661.1845
246731.7662
339240.7028
304262.9229
339292.8906
246723.5583
313084.8563
558314.5119
335219.498
356148.3512
247149.4591
247512.2376
371382.1653
244088.5853
259286.7538
224812.7039
311635.675
343181.3737
296947.2115
254260.2535
261854.1518
452230.3676
264636.6571
345943.8975
318919.3572
250234.9407
205433.9701
249961.2723
462389.2051
1181150.463
12382917.44
4708341.305
3282818.772
2968496.148
812096.1541
2518056.557
1095206.102
511947.2998
1110763.102
651301.122
587382.2177
460783.8511
571319.6567
1071215.587
311668.2152
409286.7456
287583.5262
314794.8506
466148.549
578608.813
369805.7812
371654.7402
316279.7211
246352.4311
352666.3133
240093.4619
424249.9007
261348.2054
387711.0712
313314.9234
320343.3802
637451.8297
716535.1289
425001.7606
272067.8011
234346.4717
647809.5448
569141.389
201716.577
322530.682
796610.0038
1714913.03
8126045.799
6745117.004
1548929.55
4170247.734
938641.7193
468796.3062
1062665.21
1438200.432
715143.1371
479800.8739
485520.7212
266287.3244
288022.7691
482937.6521
484979.7751
275689.6878
224666.0815
267422.2345
336816.215
324724.4604
355868.8375
241782.3073
195351.5658
251905.738
599805.7421
313147.6663
315618.3831
294987.5329
258542.4077
234848.1332
225349.6609
326626.787
388202.7775
368299.6616
368305.827
333053.9582
396073.2542
523367.9986
314092.3336
376255.0214
687485.2505
17053579.82
10293637.88
4922986.367
851621.899
978681.1244
564661.3409
533588.2747
1513335.758
1111985.429
346080.2506
472003.805
613064.7725
480968.35
420931.4191
439810.2215
380840.5767
443128.2502
321591.3943
358502.8217
239523.4995
345300.229
413377.9472
264074.0065
237508.9778
438045.0164
638432.0285
520225.1057
274795.7178
360904.5253
350236.0486
286923.7655
393663.3964
310681.6183
365884.3954
410493.1298
488095.6133
356745.2182
303829.3673
358040.2911
454963.2572
383363.6548
471729.6512
1033593.264
6555500.114
1140515.66
3504802.197
483629.761
754448.7071
1088450.276
689533.0354
604623.1608
1409016.382
1263640.93
491087.8423
555153.6288
642525.4726
594499.4188
273908.9154
475841.3807
309975.8169
268501.2671
232821.9742
310736.0236
282078.2497
250705.809
483605.2481
239252.4684
316343.1754
301977.5348
365840.6146
251546.0154
277524.4994
244588.5265
335820.6906
366215.0667
407125.5472
411554.8949
320845.8183
562333.1749
368716.4256
624338.6435
523981.548
280634.4446
380432.4047
2871166.418
12783857.1
633324.9015
2431961.224
977630.0379
536261.4958
603231.3171
1338011.092
739637.9729
568715.0342
581483.854
1577223.451
1027379.703
1147789.858
505601.8133
576449.9608
419146.0575
297014.5181
452392.3922
312265.842
616953.2983
585806.0081
387950.3835
195653.0972
563739.0197
349172.9607
375563.5664
273617.8522
275641.6476
400116.4414
283745.9229
242755.728
197214.3455
182224.3516
273463.7392
240760.6737
342576.2593
430371.4167
404367.498
447974.4414
420155.102
714359.0076
0
95559588.82
10662992.28
6562864.668
758065.6953
1013872.802
1010568.155
490332.0635
691367.8069
717676.3115
340937.4379
769368.5278
487728.4339
490238.8962
381808.7554
655860.6503
819966.8871
364597.7934
372350.024
831932.9799
615855.4703
297702.8135
253031.3345
237589.4719
299322.7505
344203.6858
384045.1075
312149.9987
520439.2666
517096.2721
255327.0176
194444.4705
185731.8188
213977.7456
181664.0323
377732.8219
248248.3824
318581.1192
248770.1775
599353.7734
374520.8593
457369.9893
802224.0017
5467090.839
1209892.249
671267.965
1795045.802
3051160.078
2433381.06
1087546.166
444772.7934
683955.3551
738555.9016
421460.3389
593114.7503
432834.4775
328690.0084
1176967.511
925823.453
253659.4711
577838.8822
445997.0824
565727.2595
500669.1371
434762.7897
728006.4506
349537.047
237010.9066
253082.2482
423193.9087
517659.2547
390171.9941
482967.7051
235411.3808
226085.5649
206419.0076
395612.8583
569782.9209
331265.0909
275678.085
287507.9347
352065.0794
322720.1969
646737.2936
1364517.059
1896072.303
1341645.087
4799001.331
3099308.796
2886340.494
2442321.935
644278.2204
525317.2028
780947.7744
583106.4462
825421.0948
454270.2689
349601.5552
426559.4467
707492.7468
310368.3978
383390.747
441832.7229
472124.5848
500536.4667
308869.8718
347441.9193
544549.5922
340820.6692
288840.9663
263914.2095
318473.1913
257368.1215
517639.2316
238165.7976
304570.9113
566482.7088
252302.4681
305039.7267
321681.8004
466601.6107
415838.2941
386900.6052
336267.7271
377473.4895
506820.1287
696271.6938
1822205.954
7027862.742
6439622.3
5572752.608
4638519.695
513235.876
2321201.709
586022.0111
1224403.691
1961072.907
554261.344
402928.2881
301648.8796
320773.4057
389262.8299
214572.8691
486390.6654
536356.0881
608967.9153
345799.3583
546507.3002
294187.9192
449151.552
510136.4157
304826.8236
258748.2358
234307.2939
386571.6308
355206.6867
261779.2102
472115.0582
412862.6388
406114.6887
235975.3024
248855.9534
522357.392
399788.9083
404284.17
314871.2442
349075.1581
515648.011
1214253.054
10735282.88
7809898.036
3722033.102
2652969.505
1294400.479
1422515.888
2295440.325
1719058.444
911209.6563
385457.587
540478.1084
387007.0681
347081.379
374437.4058
512795.5587
409403.0592
405205.9105
510412.275
414882.387
369846.1714
602488.4372
649893.6845
830178.765
756247.76
393609.7166
347746.091
465294.2252
448419.7418
233210.5915
242524.0877
262616.0003
225456.7006
249764.886
269320.105
243560.9635
366212.6597
229759.5729
753001.2266
479608.5658
505829.5958
527148.5024
1698219.322
30409813.91
7639364.231
3332188.771
2460138.024
1484588.874
1670245.287
1670352.594
1350978.449
1206917.745
692534.0627
500343.7622
351809.4254
320282.524
481772.036
502690.1925
547386.2998
486145.4448
426184.6367
409968.3365
304869.8597
311438.2047
253983.5995
518704.476
311468.1326
268328.7782
178641.3622
209041.1401
208275.7889
208985.1088
306007.3391
295105.7918
470836.5563
195177.469
358721.4108
218515.6192
301421.2833
423558.4729
312316.0507
306079.3128
494362.0773
536755.2782
621285.4714
1895252.565
4095638.855
2742607.175
2270264.005
2519278.647
1611403.117
763567.868
565311.9216
656288.4734
1041670.805
747596.8214
298036.916
510187.9634
610652.5839
318028.8776
423657.8449
596518.5175
323027.3707
309947.9061
386849.6177
463263.9764
482969.5652
267478.9563
294982.3878
274905.067
246959.2194
239628.5731
275486.5216
355303.8349
381868.2928
230257.1108
408899.4734
397688.5434
573866.9086
321759.2118
320659.9788
340165.4676
272991.3997
180785.6378
261635.8157
437308.7059
857687.1085
776512.9324
601459.2413
903209.0439
2203137.534
845664.2201
437413.2782
485998.8514
560639.3701
765450.0947
1719384.112
649818.9192
399578.339
509369.0235
442153.5653
543364.2116
293533.5691
419780.5586
306399.7229
400822.2435
689302.3127
397942.9202
429596.2385
280141.4596
253863.9521
199892.0793
389178.1548
491235.8287
470538.6744
513337.2273
419738.3086
439960.276
298191.8575
287318.3036
335562.5541
702889.5159
466013.8622
421220.7247
392764.3745
252177.6828
829783.0058
657402.0089
972032.4068
1258299.567
7082484.554
5565392.838
4489666.419
1276778.43
566395.6108
482965.2147
380132.8476
734018.3587
640906.1571
504257.2697
580203.5735
483843.7369
422194.728
411118.4639
374527.4768
712444.2049
769394.3555
640901.7184
536065.5467
330395.1858
381593.8688
351552.2586
200490.8005
226483.8616
218242.1722
354217.661
335852.9805
356820.3352
198430.6084
505881.0802
618521.1808
261998.5825
229730.2352
519989.4174
346653.1697
311734.6597
180166.1015
252300.8978
326903.6784
497402.9045
505592.3145
760052.6944
2467317.353
4687819.82
4123646.496
1100791.559
1397744.604
978854.0219
1351788.639
697838.8597
536552.9623
503912.9321
1985271.921
1397566.483
379767.6456
304582.8333
1214879.416
859068.1774
591000.5299
598268.6348
367622.112
446357.7031
274438.8266
240690.8822
350800.8001
299916.778
342756.237
233325.1648
510039.9815
353019.3263
343867.5795
356771.1071
348670.5857
269575.9102
595481.4113
408072.8918
343351.3881
275825.511
324469.7487
281459.0756
435834.7731
353286.391
1540133.359
8382134.112
846518.468
3818333.809
4040645.682
906069.2897
3225852.315
2694668.81
1133384.653
362417.4568
410877.4884
496393.2748
569770.0178
525280.3427
432174.8736
680987.8856
942710.1311
426928.5448
432507.972
352621.536
310043.8441
306366.8112
204979.2843
265026.3309
308762.7362
784933.1415
820152.2514
364504.9716
268959.1038
341160.8861
394028.9952
250814.0491
233142.2187
319799.0606
282492.2913
242023.614
183577.4164
205822.5361
247134.5267
329109.5326
252168.1286
335853.2853
1374084.592
22573402.2
1346307.154
9877774.347
1644645.189
4233075.54
3803758.42
719383.7811
471845.3628
472480.0159
582509.0064
503017.4108
465848.2098
431295.3336
477759.2025
533631.6062
673756.6099
226804.2967
347239.0996
339328.8198
483434.8783
520811.2408
306181.5607
366452.5461
457700.9068
287338.2822
362770.5207
351242.7687
236007.8409
391487.0128
367139.9255
380261.0715
239809.0735
322972.3053
301791.7388
298585.9541
292882.4494
165184.4647
253632.7586
266853.4714
325607.549
420495.9388
4076966.039
8328807.673
751980.3969
3020908.075
994758.3164
2686052.264
900242.2551
640289.9227
630223.5086
412950.3032
620472.414
604599.8809
531705.6063
488258.1902
435307.9566
371384.5793
536866.1578
393338.3203
462583.6284
675075.9947
741308.7669
503370.5837
374305.4866
606174.8529
552433.755
427419.3872
515671.0925
551557.2387
657785.6513
294227.4573
492569.7158
344152.5233
385969.5862
400634.0849
767144.2551
576771.0956
262934.6599
191808.4643
337235.2765
424286.7685
256459.5601
439234.8915
3577299.525
22101775.92
2967367.221
1629928.052
5059518.113
4001425.106
3261113.488
1912616.846
799183.7966
426796.7279
421155.2876
326659.1334
455622.9525
794493.7338
779603.5972
515941.9142
524681.6577
314224.3807
651186.8972
360709.8158
376208.5988
434438.2584
514543.9945
528473.4196
547262.9022
591741.1397
382345.373
639302.9577
373385.1541
246193.4715
321456.7392
292213.9787
264168.1831
217483.2658
286745.4589
428754.4926
396342.9094
322320.18
208938.2662
253383.3505
227524.0637
314803.8427
2437096.534
34682155.1
6339765.609
3039431.985
2480124.478
1664005.036
1012217.254
1220555.162
434133.4156
844257.5685
405145.4231
281121.9667
406694.993
479149.8952
506595.9064
605264.187
416496.047
297850.4902
262956.1681
503005.9582
589250.0752
465939.2321
659831.2433
301735.876
241384.819
437148.7927
414731.9972
267835.729
259202.8396
218673.295
376200.8297
230061.72
290460.625
424175.5277
227814.8847
195509.8943
234469.4974
266449.6271
262061.9692
326177.6422
341250.6354
459312.8469
584240.9605
6968944.169
5449660.872
3768916.894
3765377.718
884599.0077
3238025.29
1958177.908
652327.0484
611471.8366
453071.058
456512.5006
1143280.718
644230.0511
782990.3965
1217673.042
429777.9693
829234.8637
300116.9635
399826.4465
402892.4291
239600.582
321417.6664
257115.713
372926.2531
294987.8579
201842.0382
358001.8382
459787.8206
255266.0569
287840.0227
264304.7903
310312.5129
199273.6666
183521.2768
208390.9231
404513.4981
458198.1487
296077.8944
414295.5169
484211.0167
668969.237
6200856.713
0
11001473.79
10464119.92
4801215.394
3041871.945
632123.6822
2453000.081
653199.7271
651562.7306
642112.6841
796963.0446
698351.6599
686113.1513
436739.0056
282240.3144
498305.4715
421544.0278
381915.7137
451056.1314
285351.7693
837020.8421
1010598.398
281306.7475
244168.0809
309526.11
181051.8551
328764.5901
373939.0184
289414.41
248986.4451
165938.516
179774.9154
238482.9914
273255.472
239188.4557
310567.8621
334195.4178
358311.9872
340859.0037
381915.7903
293987.6068
3248423.822
7558435.796
5893127.133
4083575.647
1978333.245
2093307.369
495947.9964
647682.6671
404807.0993
905367.9518
1565620.186
717384.88
1057819.672
400095.9406
307057.2199
377160.9398
387768.0952
587889.3712
371073.071
650192.1314
332714.1604
463204.059
704341.2065
745927.8107
275148.6711
417731.4048
639094.367
537857.7893
520525.5744
529633.1118
298742.0303
327278.9016
275775.2945
252583.7077
232814.9675
215271.7231
422856.2524
242838.882
291840.0627
350439.7038
429719.3662
396629.7606
1886603.182
5746659.018
4721944.655
3218336.752
2715121.321
642402.2786
1107569.736
1740933.9
1726816.794
1923915.43
1110358.279
847764.7754
435328.9853
488569.4277
345128.0207
710638.0682
470424.3658
602418.3723
528807.3257
890214.7191
610936.6426
601538.434
736265.0736
484022.9607
457103.7481
323211.3975
376347.0166
449279.8808
624403.1944
647767.3126
476662.4394
377361.3676
826898.2494
957313.9526
319134.5197
338803.7697
257182.8519
313407.3467
520762.1788
347869.5314
518929.949
1021537.735
0
13842941.15
8947140.825
8370133.011
1079668.261
1753363.478
844165.3212
711942.9797
2249609.202
609173.1421
437992.4751
874163.2233
436367.7081
629760.7902
1334139.88
955774.9071
1091556.334
1441225.028
735765.2738
806728.3481
535557.5057
634748.8177
307639.1741
386310.2741
282214.6343
217522.5493
688001.2322
913181.8733
682431.2487
453106.104
772659.2077
430969.0449
446448.1641
529535.5207
382562.8897
477586.1552
335770.4255
189838.9906
674756.3996
518405.1202
473558.5833
476349.069
645049.0532
483077.6228
1339984.39
506127.5211
303455.1951
570053.686
757830.1328
458919.4696
227669.9214
186828.6314
319907.1384
241498.6494
167382.3791
375815.1194
264326.3561
266571.8411
228517.5422
294770.5092
268853.52
223363.1827
210169.2965
343731.4333
235461.4178
183537.353
201160.5968
143025.858
111868.7552
161361.8947
236987.5146
289096.2768
220731.8116
228204.0223
206787.1846
229382.6514
212579.8021
237649.7586
245405.2076
193912.6868
237710.2062
199832.3374
239888.0354
248399.5498
632845.8031
449614.1907
241846.3471
334368.1997
232582.3861
168526.2637
195402.9277
149449.9941
171837.4487
109452.1614
278273.5633
218198.3854
154408.8568
251211.0212
274454.5093
184060.5334
157014.7745
217447.4847
179274.9126
137960.1412
166954.7585
151807.7144
196850.5129
162329.1795
170783.279
113639.748
153510.3656
111311.9331
176512.0302
169248.3469
163555.094
208297.3402
171967.0299
154862.0456
196681.8953
157502.0538
221398.5423
235331.3672
216413.3885
128152.0358
178926.3197
185131.2642
1541859.176
588070.8968
349054.3243
346712.0843
342659.896
276778.9474
125291.0601
172681.647
122042.2044
112472.4365
154150.7774
161067.0366
105848.8658
163302.2525
246418.5388
183510.7301
126165.7668
111395.3617
143652.147
143516.6807
148462.0324
127608.4489
121115.1253
107662.8315
115748.8474
161972.8253
155481.3875
135737.1125
115152.1904
135846.0571
132952.786
206345.6037
236553.2981
193973.5314
185320.0802
170776.7174
154920.7238
171472.7337
183036.7485
151788.212
166926.6112
193049.8912
591598.4578
679413.356
438729.4612
434447.3055
318964.0084
434913.0476
252471.1078
207578.3173
114083.3748
133358.7649
192939.5976
152025.3245
144002.3863
100312.099
121482.0507
114331.2407
105213.6634
109629.3616
182551.7836
148171.0581
159251.5521
125580.1946
138514.5386
109746.2
225349.7599
111549.9267
178556.2218
178442.5413
154274.2995
152761.6069
135743.7735
146717.1771
159393.3961
210407.4019
190903.1164
185700.3472
179538.6123
178011.5385
240981.0522
143409.3588
151556.5865
264892.5
563668.7155
310386.2304
391074.5708
413230.8852
294233.4305
241201.4982
153322.7414
272805.4052
147924.8405
155816.9019
131249.3887
171301.8795
211727.3886
131731.8642
156360.6633
88205.31883
83447.14544
91638.75264
138327.0861
145376.4024
129303.2095
115113.8263
161558.1123
129748.4279
239183.305
174611.175
146137.3053
204274.491
224941.6559
253408.7833
173196.1116
224653.0753
347848.1072
218080.2671
326750.3081
272443.3712
153761.5214
152121.7469
178152.0495
197678.1437
200678.7157
304810.8094
795405.7053
363339.1111
338961.2045
254239.4202
297257.6595
368255.7515
145194.5468
256189.3362
118858.0278
137784.3407
139833.0729
97630.18391
87542.25095
95523.20337
91807.11117
70736.19093
54187.42472
74239.35974
119352.6004
126787.6687
188381.2501
174480.8776
165511.24
121845.959
116579.929
286859.4218
204908.634
208420.5836
240878.2394
323994.5337
199776.4963
381981.1389
241013.5205
293231.536
367284.011
294381.7693
171866.9053
293957.8216
284675.583
306537.7814
248666.0532
214954.9843
454352.6226
264442.7946
212575.1089
227060.8831
164704.8458
235531.9442
104555.9388
206682.1643
117736.2475
129434.3334
112989.4522
96343.30919
81637.91486
80132.59917
59919.5419
68673.1183
28672.80316
1014413.011
899344.1665
296647.9314
295613.9243
131520.9855
380967.3793
325216.0508
249588.4949
280148.6805
299705.6023
262797.4014
247007.8387
201900.2931
280278.5013
298002.2325
330917.4143
245058.5049
792091.1379
314456.2218
208701.0111
163235.6686
128889.3207
150974.7033
118732.0038
103430.4509
86663.52089
63744.20139
66459.0035
65316.50205
50839.84467
54397.42005
38710.6686
13903902.31
379460.2093
435835.6955
479363.5956
336619.1276
763055.1485
333406.3058
774775.7114
1044357.047
490802.4737
439340.5494
268150.6388
249166.4842
241080.0809
384963.1733
494402.5203
816613.3591
268215.6527
163572.4271
156506.0883
144804.2634
97961.57297
68520.12608
88575.30601
86897.96299
52573.94535
53545.71407
32066.44504
380.1579925
404.4538499
396.2578084
401.3040008
404.0930182
392.9108059
384.7232316
378.7405655
871435.3434
422094.1824
1150470.811
683776.3525
623344.2869
1891400.149
1857982.844
458694.8638
542352.7946
407379.9258
501086.4506
631897.2863
561075.9005
459964.7996
253367.8673
217264.8816
191229.102
161317.6423
129210.2992
115674.5894
87063.3075
74721.96441
50555.10574
33417.63644
385.6905103
408.996483
420.8422864
444.2169274
441.5295939
449.1378118
444.9245929
446.3439237
434.5031916
412.5098278
388.811837
379.063729
0
1743001.584
4175058.376
1915352.273
764924.7856
783831.672
427798.5505
531864.2725
707946.3333
515497.6421
650167.5508
486124.005
264150.7015
264291.3129
149772.153
156276.3871
124058.314
79581.02289
71961.22041
48691.4331
30798.50408
368.7958114
405.5328652
430.6240641
468.3109292
473.7209368
484.7013007
491.5441684
496.7959592
486.7125374
491.154669
477.88996
466.5767006
435.2175633
421.1839832
397.7683543
365.4633431
1226921.438
5871825.24
4764203.04
3858694.738
3021896.059
2720014.983
1024558.965
572204.8037
1096023.126
847831.8921
604205.198
268354.1501
214063.5156
143259.495
125806.1942
122885.4473
65016.25374
55131.17446
42061.9412
382.2077117
424.6202909
463.2987515
477.9575059
497.0084025
510.7826595
531.0429173
529.7699182
523.1132258
531.5397404
520.8603395
519.341773
519.683163
497.728578
463.7995897
444.2551634
403.207554
375.5109408
0
0
13171325.62
5919865.654
1195243.195
450658.896
1426293.21
534645.9044
644694.0213
592759.2366
180971.7625
224119.9212
163264.7214
161197.693
100276.9
59324.29653
41385.92754
32349.02347
392.2111318
435.8439776
467.1422789
505.8670131
519.3153466
523.1936857
523.4141852
538.8874271
524.2873646
515.7963125
538.3222019
526.4826471
526.8559881
525.3061468
525.2229605
500.6368044
482.9570196
443.5718317
421.5990998
375.111955
27710153.35
16948105.44
11555435.93
5672776.559
568564.9702
700939.7552
336492.9512
337401.5766
669835.4389
419167.9181
259655.3893
176973.8713
238989.5846
131578.3528
96479.95162
59720.31732
31763.08604
387.2556683
413.633754
457.2998209
504.8767947
520.2752615
541.1525556
540.7605281
521.4655496
512.0837423
474.0601877
474.8363296
475.6675747
479.7979656
498.6354638
524.3515323
519.4038305
528.7151402
508.8904845
486.209085
448.866081
394.9928103
355.5266183
36440844.46
10487092.08
4550345.976
433179.6559
712761.6902
2287070.63
2877400.98
786249.5239
338563.7336
248779.6882
190874.6208
127652.0611
116033.1793
95795.22106
69549.58949
37898.7445
402.3359493
450.6847245
487.5013474
504.9181495
539.875089
534.1802226
491.391611
446.7860916
410.2293874
375.7123183
364.5627141
360.8165031
384.0365975
411.5268183
454.5416927
503.1555075
523.8270106
520.8077822
518.3146647
471.3155131
440.496056
380.5607266
0
9598151.843
1469775.61
6865890.924
3286089.05
2347726.624
837910.0859
1353578.695
436133.7293
261698.1477
176855.8402
156846.1873
142849.5446
107618.8229
63944.8518
383.6101804
434.8985229
477.9269404
512.7478156
528.9543335
527.5627082
485.5795221
432.7517901
361.0046966
298.0550818
261.7623385
243.7672707
241.8334642
264.152874
299.1584991
355.9966633
430.2358212
483.6685087
526.9432962
534.1786621
505.2687038
458.4600071
408.5507255
366.5110184
91262568.27
3992009.53
6715387.145
4311338.644
357703.9984
2139689.421
1548294.705
756872.2229
288323.1789
211334.2054
141864.4241
97015.85791
61121.93572
39379.01917
394.4936412
454.8013005
508.1150864
537.6228034
539.5576538
502.0760056
434.4965176
341.1086627
262.0766697
202.9590517
166.6247433
150.1885442
149.906306
164.8928314
201.6144557
254.5178706
335.6144832
438.1541896
504.0883181
535.4368537
524.7418172
484.6367113
442.1097996
389.4585908
29534514.8
7252810.564
4711017.051
3486693.271
1172632.035
510619.7584
1842442.604
260034.8679
184921.8308
120132.7173
158866.6859
86823.33334
45271.69444
381.5592142
418.9742524
464.6926788
512.786559
544.1523546
531.1415476
464.8810889
362.8910497
262.3520994
184.0973452
133.2809938
105.4142116
93.35757636
93.2980758
104.9399081
133.1167076
180.2929639
262.0862443
364.5645802
461.1719941
526.8428051
518.9618771
494.0389377
458.7432172
406.5209431
360.8651354
1347275.135
1501900.756
4477088.129
3117010.896
2600512.252
2777373.069
354472.3611
324975.0181
173948.7583
154792.3948
87345.14595
47774.29156
390.5206276
437.6167195
489.8331191
527.2510694