/*--------------------------------*- C++ -*----------------------------------*\
| =========                 |                                                 |
| \\      /  F ield         | OpenFOAM: The Open Source CFD Toolbox           |
|  \\    /   O peration     | Version:  v1706                                 |
|   \\  /    A nd           | Web:      www.OpenFOAM.com                      |
|    \\/     M anipulation  |                                                 |
\*---------------------------------------------------------------------------*/
FoamFile
{
    version     2.0;
    format      ascii;
    class       volScalarField;
    location    "3.996";
    object      mctToDt_mixture;
}
// * * * * * * * * * * * * * * * * * * * * * * * * * * * * * * * * * * * * * //

dimensions      [0 0 0 0 0 0 0];


internalField   nonuniform List<scalar> 
50792
(
497900.3882
292909.224
150028.0879
215786.565
168299.6448
115031.0778
99386.96722
117114.0093
96413.4161
111915.6859
83896.11519
104359.3875
68924.08855
82426.11624
77564.4325
59057.75988
91868.64118
92396.29394
79840.94511
91235.05024
61162.823
61081.0747
81856.74074
70955.13447
55962.11173
105837.4783
56657.23347
47039.70971
64628.41558
60014.52604
49105.67559
64442.75878
77576.81597
63062.53552
60411.2874
65039.19029
54495.31636
67213.26938
64646.02164
57250.61911
51604.2432
51493.43626
439112.2733
1690770.305
1181899.349
375292.9528
188634.4307
178506.9749
184182.3492
141060.4902
157995.1353
125122.5352
139317.6252
119864.1429
116743.4208
88677.86724
75369.35199
80960.31394
100177.2318
87301.76014
81419.31804
81218.50689
82279.69123
78531.46324
68449.5003
65130.40895
56644.95685
68954.71063
70111.37062
61832.04167
61069.26499
58707.8697
57648.72728
60225.47651
63788.0977
74004.39054
74362.27397
56039.73284
67447.98601
49334.95204
54980.76677
56377.12222
87856.65747
93071.47485
664858.7134
1832183.496
471408.5516
309654.0032
253986.6524
175939.5433
109657.4266
168692.565
151703.745
103004.9432
95041.3661
147229.7664
80380.20691
95604.72061
86428.75093
118129.6082
87762.82284
67084.45342
62193.0213
64483.82048
67485.28784
77212.8819
61051.38776
59198.1609
74896.16685
62097.13665
65280.5112
92218.55962
59739.04269
58041.6972
64479.57739
59296.83807
66292.66283
56420.28425
54662.30547
59783.5985
57244.32911
52459.60518
50426.80057
59433.13884
62420.9719
64245.63444
702384.9061
431541.5526
418845.906
317756.2026
223966.0761
404581.5013
201927.3047
222865.0133
156828.4264
112511.2371
82135.51635
81878.32009
72533.06186
108226.2387
84754.17804
65954.62055
66773.23101
70300.38706
80949.15553
50946.20997
51586.11894
54126.76792
73116.68555
52905.65399
47627.38092
60709.29762
64627.48482
66503.14242
54657.79837
50047.06525
61549.70085
57619.72642
64213.9048
68991.54382
60406.76892
68742.0401
66167.73005
58524.87052
46335.14273
58729.981
63460.71573
65730.50718
592944.5607
330611.3984
499504.3857
279702.3954
297628.9705
235085.9257
113875.5171
165485.434
128082.0596
125255.7353
116239.7752
176314.8797
101599.8373
112230.6613
83139.00684
79521.31295
71094.81062
69033.2825
60796.47164
58904.22479
62265.79922
43320.95477
46922.80339
56650.65458
47200.93721
50613.88269
57447.62045
66986.52163
62694.07047
51331.63537
51814.65779
73184.18588
59948.30567
73769.5514
67024.28646
60441.66802
63437.91178
54401.75337
49566.49915
63868.49002
59400.91619
70915.25281
284760.284
838926.5985
263699.949
335361.5877
239373.8298
258860.8056
234398.3805
154787.4874
132114.7471
171103.6252
151409.8025
84908.3363
113509.8573
91803.02127
106578.4125
92417.38297
93492.39923
98557.60099
63244.86657
61049.40236
60651.85211
49479.46821
45055.59355
47602.22516
69973.70018
63041.68655
62253.76122
51205.91817
48742.60906
73379.0422
51032.17838
71134.32179
57154.54371
63537.96265
65378.89239
56051.5393
70975.01195
63541.86585
68867.72464
61211.70119
62200.43679
87744.05048
446844.8502
2138870.198
512909.9766
903205.9724
742136.1439
376131.8186
126168.7486
128785.3536
142132.2753
152249.7588
127618.8442
114023.8194
91760.97266
115216.0339
131393.3969
133039.6523
77328.78705
86083.09795
77607.02729
58392.55725
60596.94115
47426.90662
49263.70043
61482.60278
49151.37224
48787.63319
60278.48804
55231.02672
72031.44432
64479.9128
50058.10523
54155.5016
60096.52852
66719.87357
58235.55671
75206.6955
70195.27875
54211.33633
57624.44218
48083.17239
53192.95802
94124.44841
426600.2467
725166.9347
1254757.663
770924.6089
662694.2353
246027.4628
143833.1169
149835.6348
161284.8026
109130.2332
122328.4784
142539.1981
137008.7417
97808.58602
99747.53589
70139.78701
57726.30204
65284.43262
70814.70844
64100.60677
81344.27864
64224.39221
60113.64092
71027.12418
56201.23654
51702.49705
51053.98744
61410.8857
57970.40758
55597.71722
51214.03624
58208.17364
63671.56116
61342.8708
60075.99257
71038.0055
49000.3708
46105.46164
50899.94218
62160.92912
62293.99237
66635.02465
366641.5203
416372.5244
238022.0994
231001.8975
167297.661
153625.4352
174836.5764
120958.4995
115851.4429
113929.55
121474.3382
101882.0666
131228.2791
87026.85411
89551.76161
78463.25476
77580.97121
91801.3263
72935.01802
65723.76199
79613.19231
54277.20031
83230.06774
74828.69056
60095.34102
52878.46571
67661.85894
59393.35993
64811.49318
52196.62194
49908.99114
53386.28564
50447.63757
62752.1578
52771.39571
66709.48854
44910.04022
42840.05047
52562.57753
47142.38325
55437.37742
89543.48642
292396.911
2074358.974
331497.5411
450707.0216
152305.2743
152446.5434
172706.3039
134714.257
108744.8137
100913.3396
105477.034
75687.89442
94856.08863
89805.52998
84578.91908
75548.08146
90081.44007
74729.24699
56914.88202
57947.43073
49782.57711
66123.54044
55486.60139
69167.4811
66566.1321
81545.66428
59782.85557
58467.82597
54424.96189
46700.96631
62366.34333
55844.53655
80861.69321
53874.70333
70641.75623
59636.14982
49862.943
47795.80137
56159.64944
49217.43079
52187.83518
69313.38773
279636.7915
1909884.702
381006.0967
283031.7361
152974.2242
134988.0511
234914.3864
122891.0783
87370.67883
97885.4164
89406.17394
112390.3517
93581.8468
117221.4919
76150.11044
79309.70686
77852.06017
81355.11589
89880.54887
68787.45687
71674.87794
51416.64696
56717.9631
62330.79842
69836.88659
70523.53204
67821.98136
56310.34979
60822.14953
56041.71796
56767.76053
70924.17479
54676.16452
59851.15419
52611.03642
64877.67403
52337.88563
51602.83433
48087.26952
58635.22881
54835.31004
85528.92021
356592.8041
394587.0001
348285.872
278835.4375
232147.4939
128525.1863
229433.6165
118730.3241
94137.90249
107066.742
97880.87988
66964.37078
79651.47445
78114.3696
94545.73421
92305.46995
79821.01677
73743.70649
54055.43079
56971.7031
63662.84753
58932.91837
63757.62142
71831.12201
77871.06676
66564.9923
60024.51372
62669.05076
51761.24098
60089.10712
50878.55756
57453.23342
53730.63039
73772.69526
76768.06704
68610.39312
68080.52441
57617.66509
59746.23695
59112.87577
69865.52064
98530.28148
263213.8676
528825.6622
1109977.361
522892.8688
247455.168
149098.0939
123918.7252
152958.068
112940.387
109471.921
167768.9787
74312.18095
84131.44471
90400.06099
110534.0463
127856.5361
82250.41448
84237.07839
63141.65864
52884.25761
66275.18261
80348.42497
53882.1747
65287.81529
61207.49073
71448.67213
64157.74849
52941.22566
45200.10067
48893.2658
59024.01954
57340.07669
48976.21638
50724.22321
53249.68209
51453.26468
50240.70418
62233.51646
64495.98059
61266.85482
63566.36097
96297.77688
239926.1768
253651.6939
299521.4207
252004.1502
167516.3853
145237.1638
152328.2317
94463.47416
105833.0824
109854.5808
118463.5442
87987.96277
146841.3422
78284.64832
85792.85495
94137.89157
100671.116
79544.19838
76393.99637
89797.37517
81550.32265
65650.66522
58902.64729
49378.90696
50441.62182
52298.13975
49915.17394
45769.92619
46664.93445
61237.81414
57614.40115
50347.89277
52636.2309
64803.12609
62688.49469
43150.21255
47440.76876
57273.2474
53516.04399
60666.70513
58670.36667
81897.01217
165839.6664
759919.9725
336177.1496
243229.402
228205.5529
186444.4556
122582.8136
114378.5886
117042.9517
96423.67511
105635.7655
104355.3351
125751.1999
95771.43047
85565.08047
85567.91271
117436.4023
76535.59945
63685.52338
70010.79962
93669.65399
70616.47145
61435.33514
53323.483
57985.46186
53005.44066
75404.70985
63329.42045
55521.35287
45484.55894
50448.29863
54596.89704
54092.78103
57941.29025
46932.03193
55675.52533
51445.93778
49132.98289
52385.72635
69367.13148
64649.57219
99244.93814
296640.6402
2263477.013
1364782.791
498047.4428
197322.9113
185704.4637
186852.6469
126460.7197
120717.1468
98065.31708
101523.4614
120625.5866
111202.0252
80300.7927
91844.61301
75725.53471
59338.68927
64806.29387
69286.2693
52905.39162
63260.52705
56788.04465
72345.62449
59719.74003
64907.62067
63608.45257
47779.95929
50095.20728
61028.86451
52157.99332
62975.4741
70635.63239
59921.73901
67057.19884
51997.2237
72974.53279
55421.82914
71237.97564
67047.81526
65975.47317
65966.80575
69662.80184
369763.9499
1906987.994
1278100.056
567184.8714
246152.4046
558019.4098
180353.1866
117786.0399
123576.4637
93090.11018
197814.3461
124919.9179
80725.11316
101601.4262
79310.74381
85111.71447
93410.2392
74464.58776
51447.56717
65993.05378
81671.41554
77510.97603
71052.33747
59131.10772
58531.38963
73683.61518
50693.91473
60209.08957
51868.1229
56963.05571
59425.11307
59884.6686
52530.14052
48981.62286
42742.33666
45491.62176
45010.1083
52123.9113
52413.64104
44650.00801
58127.4682
96580.00909
219778.9449
617949.4976
766950.9466
951895.6834
295364.8654
300615.5073
183981.3455
174348.4454
106348.171
113310.1177
122302.0557
112330.8094
105929.8919
107618.8463
93313.19948
71572.66069
82046.02246
69655.51337
51714.30273
53431.93426
70199.4247
67069.39453
71796.1142
54026.33225
65516.91254
58725.3447
64502.30294
82155.92104
73926.98061
79400.47573
64258.53735
66106.77784
72055.33653
69250.9238
57043.70635
47059.85281
43516.92024
59160.11227
53931.46768
53273.2844
61802.21864
114317.721
282879.6561
2337409.097
380398.5334
465639.2275
290513.5615
174698.1245
114934.5318
193673.7886
135559.2794
109665.0983
86239.47417
105328.5133
83307.49923
74465.70896
65359.15239
77307.92809
70971.11829
64257.62863
62343.27203
59437.59981
67196.12187
65613.45456
62806.18711
45470.48816
57716.5254
62033.20401
46245.54421
52881.49251
52681.23738
48600.83548
51687.40003
46016.64299
60267.95674
60575.59827
54964.05277
53444.4441
46662.75227
56053.14055
67327.65988
66188.80995
66257.07641
103006.2747
230264.3106
905639.8634
480210.3386
252847.971
173181.0146
169638.5689
138887.5259
168467.9364
166390.3512
82147.92008
73197.0023
102374.8689
87780.41468
77823.23152
83035.4185
66048.97052
67688.50671
57995.08853
93357.09187
55775.15358
59781.52261
60951.49304
54589.05837
44084.10663
52006.1062
52380.37499
48271.50431
49850.81777
61520.5327
59688.55797
61350.92273
69571.81275
64327.17019
54437.72854
68432.70976
83645.37141
60999.32899
61600.85973
58364.27153
67871.30454
68381.66793
76932.86079
144954.4618
1554308.042
294653.5245
243568.1519
149385.362
178368.7777
154575.7797
113872.5815
92060.88369
89391.85224
104310.3464
68597.80469
89520.24309
48421.34122
72527.58193
64856.10677
46069.72847
51851.50544
56091.97187
50965.28642
43135.73161
51458.30635
55615.22204
56671.64696
53163.65221
58037.14511
49673.51551
52749.7391
49857.91907
60767.5888
56689.52144
61737.60623
58111.45212
65930.47034
68022.65509
59649.29825
71367.33338
58090.66993
75115.88796
91202.80718
68690.58863
82671.78418
223911.2803
2151002.01
263222.5828
301391.1452
211888.4368
174297.1534
146381.68
166208.8023
159396.5305
130315.9446
111549.6886
92814.51686
77672.542
73642.83268
53103.76457
62997.28316
63613.00479
52870.92825
68779.83787
60656.8933
58490.02116
59898.65158
48820.27338
46290.2597
61519.87091
55983.15134
53201.94236
58868.1321
67324.25415
60280.24321
53088.6228
56611.35459
52861.9957
48651.79287
65241.75945
51295.6779
62059.49957
56516.80403
78094.54141
64988.90384
74305.47032
108395.3749
552219.1358
1272757.651
403711.5219
1034054.055
218290.8569
203901.4846
207421.8178
140584.508
162917.5251
118567.1156
104900.4919
133467.5548
115067.7258
77658.00139
96867.75625
69914.05699
69204.29038
60331.37231
65083.78638
86903.80829
77545.04394
66324.45149
52958.05234
61109.94552
44585.09286
65687.79809
57786.25877
58384.77711
71728.85274
57019.6354
49838.33238
39909.45175
42674.79617
52001.90966
44866.85982
56447.81058
45371.76817
46296.78596
53283.19778
62716.64903
71395.73107
89703.08141
217503.7892
300600.9183
450937.5328
255369.9525
208311.2177
283784.5078
220897.2077
183763.7094
122246.3004
102593.3299
86116.46491
91271.75148
78716.52324
80044.96904
75576.12795
83935.32225
68866.73374
55836.41599
61117.69058
87310.91216
85446.75197
76068.32947
64194.91448
74830.45617
49129.78612
55730.7177
53931.54443
71625.19214
73951.29864
84317.01988
69853.18022
53742.63043
50713.67261
53576.17813
63747.13072
66525.50955
58583.74432
47249.97824
55620.00614
54436.64125
64869.60677
87512.89223
235444.2435
663464.8734
435089.9281
377641.9031
492831.1692
318030.9809
183018.7787
181530.3926
134393.1733
101917.8261
89186.52453
90926.49064
76332.81432
82012.74522
67005.46525
60952.76765
67311.37171
62258.32607
76273.57012
57008.21154
85934.10043
70441.96533
68209.55997
64228.00209
59913.95312
53097.23935
59790.86652
61386.51761
60117.27685
66527.51237
58817.54269
52843.8119
55559.56407
50734.68053
56766.92761
58773.82357
69660.21864
58688.49213
73829.87357
75985.55296
67264.90257
89030.77584
246721.9656
765782.8476
448716.2817
861527.2904
278724.7153
177167.3768
125200.611
144965.1107
138558.7182
122310.5606
162681.7181
115468.2326
76756.95877
65252.87642
61128.14113
61168.82317
62773.69348
67503.19486
84849.17531
71025.40082
80354.42099
96919.98726
59379.12113
63187.98083
65103.60422
59604.22535
48595.47223
45747.06893
52515.88974
53087.30114
51551.6934
66975.47069
51036.06878
56042.95891
48880.55523
55139.81834
84417.28973
66531.36187
58466.84707
59230.93354
73539.97881
56084.38371
507715.3239
824630.306
237723.3787
182057.275
264143.3615
193640.8449
236579.5895
193276.7074
171096.8572
165849.65
109459.2035
92866.24428
92859.42266
70591.17741
72932.69257
75904.53345
55635.18766
56336.45706
63506.79852
53129.89226
55943.08427
76943.64095
72054.63082
69208.94078
55059.74645
66016.7634
54043.30341
56236.35631
47379.78928
57628.42234
48689.64698
50750.79836
52949.98451
50540.25217
55809.53942
55906.70543
60235.10743
59734.61579
70164.0789
70946.20772
90799.84542
67171.91654
298116.5167
439572.0934
435993.9412
177433.1407
170085.9752
125913.3995
160136.2565
170841.0735
149519.0239
167492.218
109929.3991
89431.76234
121487.7512
71647.85981
73264.23849
70689.39582
62501.67967
62522.6443
67695.14275
62219.80097
51422.88783
63884.02017
64965.78311
77571.74254
61386.86992
69618.73737
49671.69095
48232.02531
45457.97183
48128.70335
54171.85992
51626.05852
55113.47477
46435.735
46046.10178
52155.28412
47587.91125
60998.35624
51080.03697
59716.98949
69932.85509
82324.94929
220466.6884
416189.0718
175439.1238
179376.0286
341120.7838
280497.0968
152292.5173
143648.443
113079.7273
118288.2701
109945.3589
89462.16586
77036.20871
80686.6017
74374.7607
83208.5634
72855.62246
55047.6943
69431.49167
56297.76222
59905.6767
73589.23983
69550.78657
54766.90792
52311.11608
57564.51337
50033.88782
58392.65972
48272.2168
48899.65658
60732.90061
57135.4248
54875.55723
70150.21154
69778.99995
49875.08987
57737.2959
58108.82612
55069.27354
52989.32985
57184.84476
60158.5117
327515.6718
369885.7417
231815.1432
199083.4135
324873.9635
200229.3431
155325.9487
114637.8815
106519.3787
175418.609
111169.4807
99050.47797
75236.93155
81644.7519
68699.05626
92557.07193
67716.14966
69343.26574
50856.67025
68411.42283
59790.08207
62082.30198
62394.40927
40508.15267
51688.71746
51196.76685
59486.10225
62790.38049
74912.80592
79288.35878
68578.62719
73910.41268
79712.88739
62936.30991
69136.22721
62649.87762
57558.80297
52814.01378
56075.87234
55772.5954
76582.83024
80202.29942
364830.5061
422946.3364
424229.4326
886519.5668
648100.6189
216349.9078
119557.3164
158988.4386
98845.63256
107449.5137
141709.4957
116683.4269
120996.0198
74134.42036
81359.25208
83204.9254
67896.79243
102070.0044
67225.59174
74497.00188
53564.71454
65710.36232
60179.53613
72514.22608
54798.20371
69263.07101
58998.57376
67825.78354
58346.07396
68880.80698
54310.7595
60019.38945
63540.11933
62986.32363
61447.27766
57943.21815
64230.62456
60132.24859
46453.35976
59189.18162
54527.79952
79147.34418
243823.2611
297236.9766
723158.6282
814373.8398
625547.0712
186634.8879
158858.444
131599.3182
147070.6153
147792.6758
108792.3675
117804.3056
130077.8339
156776.2144
82303.77784
69933.50229
78868.27874
77554.80444
76667.49977
59765.90483
46475.47771
54004.2641
53424.44074
51012.04856
50160.63966
56708.67834
67169.409
60007.1296
53879.25729
61678.62291
54272.4753
48958.83719
58699.94562
55093.2493
70027.03618
58090.80089
55652.09512
54827.52993
66232.88248
55708.85517
71044.81481
74644.28861
343823.1633
376548.304
309727.6565
507517.204
223142.4576
242932.9448
483965.2976
244042.4568
96170.25914
81532.09788
97865.08026
89681.18407
90177.66412
91347.21446
58332.01989
79862.93184
65266.79109
56666.00535
72813.66853
56632.92338
50035.83423
48217.71068
45254.47251
43088.24791
52340.81433
52002.4905
67816.5231
70111.58775
63124.29767
61144.07948
54843.49028
51488.3403
53947.80657
49788.52129
64178.55716
60593.68741
62207.8866
54621.5381
55419.89645
53088.67977
59122.07675
79527.75931
550294.3059
1031167.824
382415.9259
319895.1342
289349.8722
244434.119
132492.3611
125115.0289
92865.3468
113997.1241
90943.38253
102399.2999
109645.2016
82071.84675
66551.88783
74494.02783
68169.23094
56862.29061
82078.28077
63606.3512
59928.58084
63143.51376
54165.81084
59477.9988
66519.48622
54770.4908
52019.87406
59182.70669
52303.80037
67773.12824
68110.495
64132.22706
54585.39944
63162.01789
52592.45479
60936.74651
67524.12376
51897.67739
61776.2888
57490.2714
64517.74162
79394.95501
531251.9944
2052286.029
312747.1535
229081.0201
130603.2966
164920.446
138274.0228
107642.7191
132604.9141
88885.77866
88759.56392
130124.7197
105467.3972
96382.69379
84247.06298
84882.99058
91230.73199
66836.41239
82755.96136
88703.73569
88775.13831
61105.59302
75048.97965
54521.40742
60386.96632
65940.23817
61166.36943
61526.48351
71379.10862
59815.35934
78782.98099
64620.57777
60587.88184
56285.91351
65318.00663
59825.79448
56983.05088
51230.93252
50216.51781
70754.73463
74798.23075
65761.34414
308126.881
2067738.796
518018.0318
339917.6567
349017.6497
389391.8311
154034.8962
119723.8418
108566.0196
87909.5641
77306.75596
76860.83143
81166.63815
70943.17449
87741.36861
82330.88682
102765.746
62754.7743
62003.83733
58984.95791
69687.45272
58495.25826
61247.30715
60308.54179
63272.97824
63730.54414
57852.92103
72343.00242
50815.69511
62977.75593
62420.00891
64822.95387
74692.57631
62272.69635
56903.9855
58133.07462
54115.64101
53389.1994
49783.63258
48949.35325
52801.9395
66754.88403
285276.6861
1976035.792
1155125.763
803305.1364
366551.5962
219538.311
139065.787
129244.2476
122506.3176
84424.59169
80802.51637
70912.40473
66242.9985
79859.71224
82451.64324
76728.58111
80771.62309
62664.25232
60151.55179
73368.4405
84991.48721
69173.64592
64685.4836
59367.35394
57861.0777
60407.24854
58433.67264
60047.59682
59017.97522
46713.78873
64242.09432
55747.64131
60607.3313
64011.06297
47560.49512
45312.67484
59222.37012
55633.1271
59178.61882
51264.98154
57867.9127
77579.91322
225475.1665
1603115.468
1052634.777
226677.3771
215425.4805
197545.8817
194664.3093
133771.6049
113611.5316
119458.7459
96152.42522
112196.2729
126937.4309
84333.46821
103184.7138
68320.12119
76125.17314
90953.2086
74683.39375
71637.4824
87224.58893
69819.32496
61115.20468
55641.66148
68199.44247
64177.86715
57531.2119
62684.10826
67195.8555
49598.65767
63173.4452
52288.14976
54016.88377
53921.14511
57509.87523
44544.23321
59148.79055
61859.5201
63795.14538
53808.88236
63805.2348
68452.09777
341978.5192
573299.5524
369032.6137
210934.1645
157315.976
150154.9092
131828.7429
131392.7022
114214.6874
108816.4428
102329.8597
84104.12055
116110.8336
101039.2704
96268.14231
64008.50919
89725.25461
77178.68426
62868.12517
71963.8426
48685.29027
59978.73336
75567.09473
67813.20629
55201.23015
65682.3654
57611.8571
66628.58969
89824.62002
65092.72752
51118.84908
49583.85951
51428.51291
50700.93037
58528.74431
60990.63091
74870.30071
76923.58279
67070.66274
65358.0097
69617.11749
63375.15903
217272.3846
284042.8725
237338.5615
162355.8666
170002.3963
166951.5945
101700.3599
148919.8564
126166.5602
144071.8651
110161.7965
72385.16552
87538.36605
90707.9808
75585.99466
63201.34597
79146.43189
74877.92784
59204.35675
58298.67062
65798.07858
91387.81343
95343.85242
71738.52731
63645.61071
61275.08643
64916.78402
77172.60372
85993.40297
79105.85902
60945.76373
58685.94659
47923.44859
57541.36619
60241.48424
60065.14247
77511.86693
73461.32952
76721.74524
73487.43328
92041.16254
74463.6168
264038.7914
792672.2591
340163.0014
292035.9434
227767.7327
129523.9256
156846.6858
200104.3099
197684.494
158235.821
114924.8276
112264.9577
85357.54714
116723.361
79488.30724
74299.47421
104538.5997
64962.56788
66594.24661
52680.94918
79159.1873
87602.28477
81540.52256
69239.75184
64000.66311
63320.18435
48210.84122
54989.69406
77199.93308
72596.77536
65545.40626
56155.89161
67015.85981
66418.27462
65102.57575
54045.51681
60554.21023
71700.77912
103590.2202
67413.71364
101771.8553
98367.73829
543706.0223
448538.1185
205776.4488
152779.3644
132750.0557
118601.931
135936.8443
105379.0215
150474.3631
86294.77552
93410.61116
85119.98868
81857.55748
76935.10401
81959.09535
87436.84805
101875.0724
77785.05727
91845.72694
70643.38542
67080.38216
100626.5363
67862.42987
62871.93779
66096.25703
54514.68586
61764.33585
65213.54032
71936.50447
66562.21591
69745.65315
60684.55044
61849.13788
59091.40291
63377.12024
56279.66067
57505.35999
50931.82156
64703.34744
70101.55446
69548.4391
63138.17952
124825.7668
106429.8314
109823.2481
77702.89449
65792.81299
70988.73775
62440.4155
63230.44257
47959.63017
52408.08587
52686.11784
39354.35105
43107.95526
42526.81442
44515.66172
45219.40854
45463.22026
43306.97569
47770.5735
50980.65779
34418.53349
37623.23456
42499.89601
42914.70161
45377.81142
40628.89493
33163.61864
29865.26861
37293.01746
56038.24517
44696.69557
43264.60133
43124.97472
45757.12662
47239.28692
40833.40557
45113.01788
33974.18939
33652.28183
33875.33594
28726.04511
51735.55317
101281.3967
77132.91672
73580.69293
67390.13367
67232.85084
44959.0101
47663.9811
32484.94941
40612.70583
35880.10801
41257.25986
32447.57498
28655.23724
37171.39739
38011.314
34460.39988
32677.7788
30610.07316
37268.36092
29125.15599
28989.34525
29806.03816
29397.53272
34116.62394
34134.49547
28129.4627
27562.85833
27532.56508
27638.57539
33169.0074
39758.03603
40075.34912
38978.73305
29837.62351
31747.91925
25448.15518
31589.34309
31319.08805
28944.02664
32344.41319
32321.28873
48629.0108
153885.1253
65534.65479
60908.73032
67209.57407
58891.2544
36661.99064
30760.01997
33019.77143
28960.72343
30082.06783
35936.79955
28226.67896
20654.18031
25859.68872
34306.19042
31034.3104
21670.49748
24389.8463
24505.69858
23430.81792
23667.59716
24028.51141
24255.92131
24006.46253
27191.93661
26052.03033
28397.26193
24768.78012
28848.85861
30918.60269
29869.97088
31164.62344
28214.47336
27597.12743
28347.46866
31134.19056
27354.79487
32206.5606
27697.1326
25373.75994
32638.31768
40077.79726
145755.9106
76509.68343
66741.03022
44380.46308
50108.20792
41236.86034
32789.87349
37613.35813
29000.03015
32539.89798
26802.14531
25997.23623
21590.97784
19162.27804
24422.19219
21179.174
18609.35925
19170.08117
23868.82651
22766.10952
22518.14815
23235.30098
25418.35065
23661.86987
26713.02615
26062.10787
30456.85305
29586.5912
25279.78813
27419.26144
33154.88361
31737.03121
31754.89208
36156.47963
34520.485
33500.15069
37853.09308
32535.78864
31376.72042
28951.67037
36427.73501
52840.27607
124975.3274
66065.95669
70884.54767
58761.73191
44756.73612
38636.27167
32216.88396
29906.03578
33269.69653
32987.06054
29665.15416
24917.44881
20039.01948
17688.19681
18770.10413
15749.57628
16395.65875
16878.03503
18969.53937
18739.38198
23290.59437
21396.14018
22696.87191
19921.49588
29225.02278
36122.58146
33429.62016
31313.25112
31327.35568
30159.2877
36431.09351
36706.33689
36746.84057
40197.9229
39135.94898
31221.08552
30968.49774
31687.52472
36809.37624
32014.71049
35379.43698
44504.09649
133001.4206
75515.43048
61802.20604
46524.98421
39617.96769
45940.81595
32206.45345
29665.40668
28549.59343
24550.84038
23723.3753
20776.67532
20265.31588
15596.96125
14706.92459
14285.76743
11806.98201
14394.41706
20124.5364
20540.66967
23120.53678
25686.22928
25113.51235
20723.2182
25142.68889
35772.30844
42983.76434
39757.21565
34841.64533
45839.74551
50579.02569
41129.9072
37517.08958
39210.09931
46360.27985
44516.52489
31604.15172
30064.92546
33911.91969
40801.27173
42392.11677
50313.08188
125628.523
54423.02472
42315.01284
38153.39748
33355.1062
33018.70859
27267.54243
28071.98328
24607.76959
24579.16052
20722.81709
15422.5965
13926.91024
12715.4269
10278.71679
10848.67514
5950.406558
260977.2643
76074.51491
72770.99335
65451.76134
50430.21025
48672.40108
70226.86897
51448.89997
50545.13508
49622.29214
47085.34103
50546.47817
52303.22754
48318.25505
44531.51421
44388.49002
61436.2021
107591.0644
58496.88253
40001.87517
30969.22689
29462.405
28529.48869
26650.37032
21618.06579
20950.79216
16891.58368
15780.26757
13081.13854
10487.57363
9607.579771
5868.400421
149655.7497
99298.76229
80942.60692
84595.00115
84376.92379
95093.68942
65169.7934
58752.76011
55912.18848
66125.59894
54656.79835
46389.51331
47921.15481
47880.12372
61375.64547
106965.6829
61819.36842
46559.19624
35987.72941
29247.49677
29275.02146
20954.03301
15553.82104
19429.49667
14360.0025
9803.121261
11531.19178
6280.877872
72.37914002
74.64315257
75.49066774
75.50211322
75.99907202
75.84374906
74.88355565
73.02721668
156362.8449
81660.92564
124768.8479
100459.5721
113983.3037
118798.4934
107356.8316
61132.27029
83927.02178
68938.38698
70965.1843
76080.80633
72640.09753
97235.65306
59668.09589
43779.9574
35711.99196
28987.06346
23356.84483
20976.02808
16852.20921
15416.48888
10897.62022
7223.561496
73.61483195
77.52595127
81.81148356
83.43159395
84.77957025
85.03549205
85.45380406
84.86975056
83.07494611
80.5103886
76.39950806
73.21190674
292586.077
177755.0973
194984.7538
230813.4512
126751.4034
138583.8796
93606.54371
71261.7084
85235.59161
79352.99682
84020.91797
71312.57184
43241.97234
33694.47345
31361.20948
29438.38129
22025.8539
20603.40572
16996.29745
11258.86914
7076.54056
72.57751816
77.47993405
81.86399634
85.78798484
89.95317975
92.04037405
93.98934231
94.30230596
93.93106571
92.39806433
91.34287516
89.36317764
85.22490467
81.5615711
76.44573973
72.06099878
458995.3899
201079.3674
201824.3977
219766.2079
119083.5621
126529.2842
133850.6874
60351.02179
81750.27586
71308.23729
98956.85996
49925.46029
37790.81375
27933.6906
26599.73275
25695.4596
17146.10522
12454.29811
7212.894832
73.69784932
80.12990424
86.21780076
90.12718358
93.41965604
97.91075588
99.70126944
100.7476566
99.44601137
99.68699988
99.45844701
98.60257841
96.25107396
93.26681359
88.21187802
84.43381065
78.7829563
72.98349365
754198.5111
211333.9425
190380.0817
385652.6721
186258.5581
121282.7856
100864.5964
72810.29801
83139.48045
88738.71857
44119.25027
35415.06455
25668.61733
24101.76874
17514.59939
13397.19496
10548.77758
6505.395164
73.61500254
80.80515334
86.47707466
93.47963115
97.31301039
100.6938299
100.4205231
101.4879224
100.6915346
100.0535148
100.1856018
100.1032458
100.7760231
100.7613447
100.3214517
96.60793286
91.58304266
85.12389097
78.87257308
71.20918635
954511.0195
356755.7152
409199.3795
201418.228
123029.1777
113837.4108
90156.66942
87433.39125
117440.4959
75212.04895
47828.40626
28473.67725
29523.5468
20935.15232
15809.42335
12145.25362
7830.397895
73.09578851
79.33180352
87.31949639
93.2205503
98.20574573
101.7523704
101.2864373
98.44522106
96.88237809
93.14072119
90.26651645
90.26149418
91.65048116
94.74573707
99.50484274
100.3508871
100.4998115
96.75422716
91.01401436
84.65539054
77.25995295
71.22768669
4998854.27
632948.6811
158554.5616
151913.9371
104219.1314
97681.36612
153296.7633
125519.508
59547.88609
41061.48173
33000.23793
25490.94747
21173.35602
16183.23573
11958.8235
6385.583705
77.60285614
85.29549747
92.19979403
98.57268266
101.6339791
100.0014885
94.4915097
86.93177477
79.07751501
73.06604994
69.84121102
69.41814997
72.83512225
78.34244742
87.18983608
94.51589112
99.21300034
99.57029587
97.13103443
90.83422824
84.00531344
75.57930396
426872.6522
424350.7597
187793.353
296710.8524
271200.8426
213575.7427
114809.8899
190856.1904
103585.6415
36574.80232
33862.96307
27718.80296
21818.78982
15717.55561
9707.571719
73.35883868
81.59688936
90.41251968
97.51617312
100.6730859
99.48738977
93.44889561
82.36241208
68.98313913
57.97410251
50.70971896
46.70891434
46.54722455
50.47731527
58.41677295
69.28454754
81.58614343
92.66479162
99.75578001
100.7128199
95.18250198
88.07671524
79.89136636
70.86407502
852628.7366
639013.9582
237140.8343
343388.2085
127252.8725
138935.8031
240485.718
97237.47297
39276.53171
33030.71734
28247.82551
19982.74861
13003.01729
8011.681128
76.6641096
86.21102411
95.1212316
101.6122072
102.5857658
95.4273239
82.27473111
65.97383241
50.19294243
38.87725755
32.13725171
28.99122212
28.98898673
32.1119919
39.10335981
50.21753551
65.17198772
81.6328994
94.94201903
100.2416584
98.3773706
92.1551232
84.27124461
74.31721362
5626405.935
296891.5763
244559.1327
221771.2353
126327.2165
183699.1805
164064.635
54429.53683
42438.17711
27214.85457
24113.48583
21316.23125
11585.87905
73.80741559
81.22695135
90.05947727
97.55045598
103.2189674
99.00546978
87.32794897
69.6535672
50.09538196
35.26476473
25.69536688
20.21079539
17.90795223
17.95200351
20.24820977
25.6076916
35.4037593
50.21012288
69.5177383
86.75068472
98.51627201
99.02388723
94.39579882
86.68022981
78.16352003
67.97862633
163759.8438
216899.225
264101.3852
188676.9947
179522.8619
191594.7065
63968.04948