/*--------------------------------*- C++ -*----------------------------------*\
| =========                 |                                                 |
| \\      /  F ield         | OpenFOAM: The Open Source CFD Toolbox           |
|  \\    /   O peration     | Version:  v1706                                 |
|   \\  /    A nd           | Web:      www.OpenFOAM.com                      |
|    \\/     M anipulation  |                                                 |
\*---------------------------------------------------------------------------*/
FoamFile
{
    version     2.0;
    format      ascii;
    class       volScalarField;
    location    "3.996";
    object      mfp_O2;
}
// * * * * * * * * * * * * * * * * * * * * * * * * * * * * * * * * * * * * * //

dimensions      [0 1 0 0 0 0 0];


internalField   nonuniform List<scalar> 
50792
(
103945.7389
12022.88841
6794.894424
22854.66391
21168.94333
16441.26811
7956.397908
11759.36784
11049.96162
9244.579317
8026.518977
9189.444051
6490.562565
7567.946083
4936.434626
5382.524475
5605.195618
5214.429335
4022.684942
3349.105406
2825.04711
4351.395743
4598.942613
4479.148367
3990.21786
3446.52404
3212.344926
4085.332527
4138.046142
4140.861561
3726.999326
4448.457909
3526.854231
3397.334007
3859.067787
3242.073379
3162.011009
4068.293171
3364.47586
3326.00064
3341.124465
3203.017569
13258.74538
20508.53172
16690.90512
13635.95029
10688.93324
7730.132518
11725.51149
7475.965647
5919.944251
7656.13703
6743.271762
6783.186909
6349.621527
6724.762063
6206.578943
6508.787938
4598.526173
5859.201387
4660.120742
5179.748783
5061.941341
4555.218954
4629.104479
6096.134283
6373.708461
5037.536162
6731.900212
5161.264007
5538.38322
5151.268703
6078.888349
4666.026779
5572.817123
5755.019424
5532.096977
5361.233107
5856.693689
4056.895272
4717.54554
5301.505404
5480.32937
3684.060012
152251.3904
27576.71725
14851.45929
13706.03064
13276.56452
11109.09438
6680.630461
16211.99618
5851.967715
9645.220111
10442.08364
10169.2764
9194.877612
7985.529965
7344.758799
6256.370284
6555.961802
6366.237654
7308.355241
6238.784938
5658.773048
5592.326671
5875.462942
5285.421073
4481.796854
3314.019223
4460.284728
4596.766685
4832.082714
4046.022503
4244.762486
3423.825279
4724.438115
4865.93202
4569.628561
5753.368489
5345.597814
5363.888822
5105.629004
4821.123791
4420.619192
4745.122066
68813.28137
31157.314
20823.59403
14000.47006
11572.10339
8108.554256
6975.898933
6555.396302
10939.14084
11787.41649
9854.531346
7926.413167
12626.18794
8849.384848
9007.577755
5061.403083
5533.91954
7363.907107
6084.971441
4591.726901
5048.237544
4769.849902
4805.407732
5627.78671
5229.537974
5481.451596
6179.458489
5161.411068
5298.438299
4652.708172
4640.067552
4757.27219
4580.69018
6458.224888
6262.536107
5700.75517
5590.582347
4485.483494
4722.787544
4589.372727
4433.739528
4534.838924
44604.27974
21376.96936
20151.55114
13954.79574
5747.418849
6387.471395
9964.581943
12771.86053
8447.43428
8908.006523
7760.498316
8660.003174
8866.086549
8586.71148
7468.158028
7491.837608
6294.295703
8462.126175
7783.560692
6930.578659
4601.570943
5397.884265
5031.990893
5336.508337
4664.721816
4104.081012
4538.141844
5325.285048
5623.849586
4361.695772
4810.540096
4787.682407
4644.381178
6015.613701
5362.972832
4885.204226
5400.025062
5094.381001
4820.953472
5097.733374
5169.668071
4121.35126
35614.87935
23482.27731
14201.44841
12348.91893
16296.85996
8097.556716
12134.49312
10188.99634
9205.551744
8409.565485
10954.90967
9618.706897
8525.991611
10071.14279
9037.597828
8450.398329
8519.230241
6333.031245
8552.197066
6503.768241
6129.611476
4425.27573
5697.693386
4941.975518
6340.003796
6524.833799
5868.908402
4859.520046
4682.025447
5165.215975
5668.335127
5309.092882
4491.561415
5310.173957
5444.709125
5831.933954
4969.825651
5569.751776
6344.52985
5209.346798
4712.037035
6118.076071
8406.876464
23777.24936
35834.78665
19083.1124
16210.75815
20046.79257
17435.44363
20881.11465
14382.72993
13635.24742
10423.60572
9147.836117
9121.709088
8720.456604
8935.098526
6276.668464
6073.06527
4873.537984
5089.127599
4862.404707
4685.42031
5967.230349
6191.401088
5896.773118
5163.571074
5249.720266
4367.584671
4499.193936
5062.561374
6257.680542
6567.367138
9017.915852
6746.068315
5305.027565
5487.213974
3634.716119
4573.294221
4505.899593
4572.447987
4333.211272
4034.009207
4106.671739
63385.316
30655.8453
13427.10604
9249.102696
7141.320855
11509.67236
10576.4623
9599.284996
5656.146505
8237.286379
8167.086214
3922.521985
4715.768845
3664.140722
4702.581108
4738.028057
3824.161662
4515.528045
5376.738602
5247.139573
4705.795929
4358.188762
4459.310669
4693.748235
4755.126379
3541.094707
4722.596578
5652.824518
6462.137842
5044.930774
4622.66283
4863.150821
5090.323275
5270.283164
5704.165695
5927.724584
5646.335609
5500.858728
5217.588979
5270.002868
5301.076602
4825.232872
59210.19959
16082.85107
24764.29489
10461.1526
8663.737037
8216.9068
6147.421541
9510.265723
5602.242127
8955.950863
5839.897189
6477.793311
3076.947373
5449.374029
6365.70463
4724.689844
3452.269793
3034.800955
5658.270573
5227.952792
4238.898643
4413.949645
5494.483347
4975.529481
5595.330727
4686.777426
5918.338494
5630.281891
5348.923769
4249.862284
2299.478993
3850.438271
4077.469685
4412.125254
4621.465986
4202.549142
5094.190275
4028.871034
5025.625072
6011.575844
4417.022278
5242.29916
88029.92131
21833.23443
26913.5275
11758.63954
8082.26812
5266.896077
10507.99683
8691.042831
4686.699251
9899.309953
8867.69417
8373.17021
8749.563021
9901.497825
8224.665261
6323.568374
8994.284842
4857.841534
8027.306655
8032.615899
6522.361206
6529.91183
8366.145121
6231.685189
4746.868628
5090.297267
5905.466632
6154.450147
5299.275816
3371.329364
6181.70188
6929.140613
7004.318234
4524.09856
6813.888598
6473.490891
7073.739077
6608.795251
6192.246088
5539.523822
5280.259701
5499.756624
70544.70315
0
35509.66102
34009.29547
16029.22459
10461.59662
13006.54041
12137.60411
7921.292131
4840.153878
9948.513073
4752.947727
7834.685273
8544.969847
5463.19712
7144.706678
6394.500563
6400.901152
6185.312096
7471.003256
5759.442944
5581.706055
5650.913848
6380.203798
5445.20566
5272.831632
6000.389958
6370.921355
5626.979856
5781.38904
6585.605532
6006.870532
6133.931795
6486.441003
5131.066468
7116.20778
6826.333822
6448.904014
5324.414519
7105.679064
6895.520717
6804.860683
92986.89197
26296.45595
25734.80789
9315.36774
7622.474555
6814.488305
12801.34086
9355.210858
4818.686081
3732.849453
3598.650054
5938.600658
5503.575309
4914.681845
6318.06758
3106.221217
4231.204139
5422.418933
5200.17168
4565.558269
4430.215331
4908.809588
4980.596435
4693.1219
4080.897894
4673.164611
4932.151637
4096.221841
5386.136438
4671.742138
5023.138387
4797.42967
4495.677425
4843.062964
5130.715452
5241.167322
4467.58282
4446.598725
4939.668582
4605.036157
4091.087803
4654.378481
7198.094357
29639.11592
12905.88289
9708.174956
7557.860078
14983.43036
6840.70563
6682.318264
9917.507303
8813.911959
7995.855742
5976.791249
7408.607559
6804.63798
6852.835659
5053.22751
5408.732225
5801.745877
4391.107314
4012.543123
4455.637053
4301.229694
3916.315813
4592.471836
4886.64276
3555.296048
3846.933296
4249.334787
4725.977398
3918.329335
3619.472443
3701.441005
3142.222091
3185.425067
3241.156837
3432.92942
3831.086209
4496.948572
5153.222163
4810.956848
5666.427219
5183.739925
5088.986461
11052.81189
10041.16975
7724.926258
6608.008641
6101.413023
9786.567297
7115.443219
6103.944809
5567.341882
9101.584836
8634.062615
4757.513635
8769.830855
6862.241798
6292.249813
5757.775898
5744.322546
5013.512286
5598.711172
4278.621398
5669.630354
3749.343272
5208.417906
4476.134003
4447.465363
4367.922323
4719.16697
3695.460961
4330.843245
4054.771446
3751.227085
3526.358384
4354.385102
4442.116703
3709.988439
3546.304102
3121.922674
3382.622737
4119.54925
4767.514994
5510.394061
4650.0392
11184.8768
7106.875603
7470.33329
6061.457484
6420.203847
9473.03449
6664.067265
4281.073111
9699.993455
10865.99829
10453.06037
5421.05785
7380.379752
7551.007081
8646.433365
7028.46789
7476.96068
7099.205351
7555.947618
5623.673748
6190.187443
5170.303311
4179.497861
5101.868943
4506.692935
5576.050427
5210.055833
5069.986613
5583.25894
5224.824046
4787.830583
3421.162709
3837.249511
3355.233305
4779.991779
5001.731804
4959.727766
4846.438725
4793.482344
5215.870901
4725.723118
28541.39362
19711.90975
13978.95775
12847.87661
20540.22694
15083.59499
14856.46254
12465.1254
10274.38166
9740.535472
9331.066668
7533.858899
5052.316632
7383.788869
6701.993457
5674.801652
6350.566271
6267.122946
6170.234383
4354.773118
4947.835185
4729.050673
5362.367333
4130.850008
5634.988699
6221.749559
5356.160904
5212.48753
5426.29609
5248.434927
6713.095639
6819.213039
5778.8333
5224.331484
5256.265487
5281.866901
5151.931607
5649.516011
5132.409347
5182.865987
5243.556622
5076.582285
32574.68568
29580.11405
19645.90429
10579.95555
7174.304639
5469.457974
10118.49014
5593.526068
7980.290777
6535.151244
5434.796221
5461.608377
5856.311545
6899.517736
4803.427788
6085.577973
5601.985609
5919.670616
4795.27186
5662.773694
5035.403933
5676.53474
5430.345931
4491.747414
4279.205322
4663.979714
4088.733164
4078.902281
3909.466074
4435.85175
4489.720594
4429.213421
4502.712499
4550.364362
4139.656251
4486.387847
4660.947796
4434.388383
4273.865514
3794.778844
4462.563674
4773.608385
14006.13818
25499.25982
11984.18876
7746.949007
6749.036733
11887.95027
5836.559224
11051.4242
9665.456144
6918.88838
8409.190041
7695.438593
8370.203574
8289.453213
5026.490795
5854.144856
6630.667395
5502.754839
6057.470056
6675.64939
6698.461809
6390.416881
6628.000477
5997.59408
4531.726636
5695.814453
4531.591259
6424.922422
4827.210978
6619.314708
5945.77837
5408.07136
5682.561783
4699.377194
5495.134548
4818.700517
4309.712906
5371.781875
5866.947702
3915.64421
5599.152073
3737.664609
32924.00498
13192.03113
12681.97752
21033.59049
8944.131588
15830.54469
9559.864881
10703.31878
7142.695936
8930.249529
7411.103772
6822.586886
5024.381475
5593.650846
6825.171324
5779.688866
5151.595284
4435.209545
4784.367672
5595.242107
5200.779485
5256.841744
4472.042304
3925.16054
4915.720966
4301.711581
4813.167167
5456.97211
4840.961513
4667.785469
4361.829067
4469.129534
5649.991977
5977.236328
6159.782774
5984.448485
6036.322217
6292.548983
5979.752829
5665.602812
6007.175607
5025.192538
298226.2955
23695.69486
11988.63417
15917.74284
14706.22275
11089.56542
8887.656578
3813.130548
4403.692356
6376.996919
7352.348395
7243.198808
7860.119879
6751.309575
6326.234074
5712.87062
5446.138246
5704.116799
5769.788394
4200.570202
5631.160792
6092.371549
4953.927513
4396.580963
6657.66218
6675.155537
6719.291566
4951.527713
6463.666392
6363.697826
5333.585762
7224.866948
5617.90688
6784.974014
6352.465798
5038.589271
5912.124547
5274.97244
5105.957776
5060.230131
5764.403985
4766.660755
12755.98829
16668.86205
19807.89162
9217.154622
9123.9358
14066.74262
9592.48543
11359.1031
9038.343506
3643.537722
3196.714199
5935.561146
5795.165662
4606.501293
4946.770075
5112.617348
4147.72755
4266.590804
4496.809283
4120.89473
4828.32401
4874.395796
4805.627581
5553.742591
4402.083722
4709.397155
5003.002814
5168.635907
4520.925967
5044.06214
4539.341888
5062.97822
5786.978091
6870.797843
6467.171889
5375.370355
5725.211114
5531.27173
5154.201492
5515.897926
5243.1115
5652.554801
65304.42956
30885.50306
9653.271759
33349.69769
18578.06305
11280.37215
13532.12249
13582.89633
12811.89097
10206.00178
9114.503137
4059.169656
5933.739488
5209.864106
8689.428465
7086.988714
7030.779729
5897.575401
6855.755196
5866.318678
8255.520439
8369.818445
6513.558676
3417.395141
6059.292126
5533.057244
5565.902838
5013.972705
5084.533246
5883.866239
4813.5608
4458.416601
3688.346063
3348.780882
4677.471236
4600.870893
6200.197133
7906.464553
7394.435265
7610.284462
7650.144972
7719.606581
0
129396.4846
30392.47339
17920.10745
16179.08574
19765.78521
15359.51086
10276.91102
8814.145665
8504.137332
7188.885218
6233.019285
7269.89449
7473.9198
7099.842421
7024.962063
4748.352374
6481.701991
7141.578293
5544.834116
5316.162631
4498.910094
4391.630818
4281.972111
4851.526474
5430.534906
6659.238894
5291.349299
5095.214985
5464.398331
4590.183087
3553.276196
3576.131251
3875.675655
3646.525284
4533.176512
4599.362415
5274.463273
4588.03956
5621.82825
5812.352369
5668.702916
10573.87126
16495.24996
22945.65497
14499.85068
15067.86733
7308.762163
5839.522703
11601.22499
9768.785173
11891.95719
7013.218085
7557.082501
7108.464376
6678.02662
6463.447521
4626.703998
5827.209441
4963.655397
5057.10996
5572.693996
5228.568131
6317.469416
6016.275875
4742.279587
6055.5034
4562.709323
5067.32414
6990.413052
6346.758046
6136.09507
5114.581655
4700.082892
4346.922874
3978.673317
5918.472882
5475.096654
5768.940674
4887.137037
5416.926165
5746.487469
5693.058951
6968.976154
3113.022887
31487.7959
27632.43131
13402.40166
8361.26692
7029.760816
6341.898673
10347.47305
9546.333227
10759.71027
11730.38096
9849.69473
8198.592457
6911.090042
6925.711458
6143.096586
5794.920438
6263.697862
6309.257551
5518.964936
5376.903256
4999.764493
5602.996971
4896.649662
5530.345297
5209.189157
4789.367719
5189.638284
5190.903525
6480.100225
4837.037243
5714.10441
6425.877198
4543.756157
6175.940446
6119.552623
7474.802361
7096.477255
6468.036623
6106.520325
6778.131434
6411.458524
2820.214348
39019.09106
18560.18706
17334.00976
14653.47284
11884.63848
10246.6412
5936.483906
11809.22548
11305.73669
4805.947478
10162.65095
7743.509996
5623.691836
6279.936405
6761.082603
4116.979507
5936.694456
5743.593981
5198.721912
5977.804045
5955.304332
5580.016924
6256.1236
6074.210029
5308.493852
4901.812196
4616.898468
5948.254288
5900.783233
5004.94566
6988.655937
6580.734661
6603.657435
4563.440547
4925.02992
5613.874125
6434.745755
6890.4345
5860.011982
6419.212796
5846.114349
13925.51286
18795.66999
14339.86822
9118.526569
7027.089523
11270.2232
8464.757594
5150.503691
4049.199974
6451.453329
6647.651956
6897.276718
6789.678958
6250.869289
6328.915412
5564.067569
6209.524476
6835.340468
8478.823591
7992.14052
7123.882523
6326.775412
7571.201457
6023.080612
6246.444977
7384.631929
6751.717051
7172.046784
5481.007604
4292.811105
4463.415934
4519.024603
4239.31958
4262.046208
4894.418752
4485.833115
5911.07097
4586.155956
6933.134385
6800.651994
6638.276902
5100.651243
19414.73812
70453.06006
23145.03758
8967.252067
6738.818753
6558.036489
4899.87756
4112.337626
3724.888795
3259.181492
4431.161871
4734.521046
5223.696467
5584.918203
5504.696946
5664.261228
5055.358746
5907.48342
5938.754719
6042.929019
5707.527396
5041.703332
4659.019495
4349.111039
4472.609542
4205.183848
3306.645128
3803.518139
3931.371
3821.06955
4964.913677
4866.703694
4765.549355
3832.242567
5348.585821
4191.9313
5324.478093
4833.060562
5180.499255
5551.36929
5605.16781
5332.392099
4819.44612
38279.58453
10305.62166
8215.644227
7200.959092
5911.796847
6565.471189
10693.20047
10044.00924
9717.093889
5814.186529
6400.174013
5911.233664
7666.078769
6778.400243
5972.034945
6866.961232
6442.289725
6271.096596
6612.918409
7703.455111
8086.897246
7995.941556
5277.159976
5797.319126
5110.210214
4715.834967
4769.675399
5059.08476
6212.618344
6049.132427
4597.088078
6154.987606
6342.91668
5351.419744
5213.358439
4289.664524
4207.671459
4214.209437
3422.754994
4138.104539
3377.909773
13841.30712
15641.50131
12316.00025
16060.52377
4864.989741
9618.113605
8161.515883
9679.020919
10500.04665
9738.869734
4689.542869
8898.381207
7732.188732
6950.870669
5898.394304
5198.430808
5286.623442
6453.607643
5985.414649
6398.743975
5167.89787
6071.094352
6573.883114
5153.392959
4845.362887
3762.637966
6869.667706
6769.319263
7162.423443
6485.814043
5923.233983
5795.444328
5480.928252
4926.475026
5595.063076
4593.086104
5306.356377
5484.800075
6149.73913
4714.620459
6810.391334
7524.117248
7102.465011
20844.68132
10888.03931
9474.147497
8115.119821
18603.51089
11790.59751
10026.00704
7671.968197
7308.001366
7268.731499
7076.742486
6406.405192
6810.169556
7147.494407
6884.693225
6535.427815
5928.650619
5453.864427
5628.997512
6408.725614
5890.814607
5672.585644
5464.624508
3983.247651
4303.780897
4376.874282
5404.303097
5248.359701
5126.456962
3875.383132
5796.589726
4297.109311
4787.285324
4186.075305
4618.224969
5772.396896
5525.221564
3440.903219
4429.007628
4890.1653
4403.011934
6701.579576
16039.90105
28085.75989
12365.47043
11477.05835
19588.5969
14056.45834
15069.86704
16225.37032
13785.39445
10517.49727
9917.045825
6529.987089
5697.813693
7515.867412
6366.620663
6003.282498
7260.317993
7910.58642
6630.945228
6419.150249
7399.13946
5445.553736
4868.72949
6490.56371
5867.76242
6196.375448
4503.993226
6814.852168
5861.560569
5684.185537
5287.856161
5302.131018
5131.169203
5513.836064
6618.683147
5864.25182
5013.797676
5990.472623
5245.424371
6963.114108
6359.928341
32124.04522
16357.33564
17224.99945
10025.9222
10833.20029
18745.2507
8340.223894
8668.357174
14319.24759
7333.600569
7654.115099
9060.916453
8086.627391
7109.801585
6839.093805
5677.257302
4462.218367
6899.586017
6870.909563
5683.690329
5007.543318
5007.605627
4142.351015
4933.037167
5326.513056
4436.886387
3719.72108
5860.011471
5203.519798
5219.407959
5554.983219
4687.290419
4690.608289
5121.917676
4893.599833
4176.512801
3311.534768
4056.560978
4293.974029
4549.303408
4179.697914
3500.904645
12373.58059
40311.81551
20940.45081
22958.16796
29741.12549
9587.036278
8979.517393
12789.89831
9267.013692
9700.176837
8962.153427
7410.784485
6738.239483
6579.106279
6448.754248
6142.44182
4812.652459
4456.892154
5458.660553
5522.233049
5175.118479
5215.645099
4883.769701
5228.051142
4704.178488
4907.304801
4566.498129
4905.676747
4414.970778
5678.606608
5649.941313
5166.46447
4375.699032
5042.09047
4899.482709
4655.433194
4735.002698
3057.385256
3715.185199
4365.889506
4472.772531
4246.239951
78574.48466
19986.47634
15291.53961
9255.91829
17957.45546
7302.063711
9063.361482
9305.959517
10487.66779
8575.627558
9967.774021
8642.540509
9114.97615
9693.44983
8012.790973
7182.084774
9972.97497
7988.14021
8683.199507
7678.180531
5815.455534
6030.934846
6690.206005
7572.029919
7027.347083
7370.157611
7619.037573
6692.860295
7227.326243
5488.769575
7643.24448
6590.15087
6973.276129
6871.754414
6757.885053
4941.83636
4608.773001
3558.356036
5687.013224
5547.222362
4434.559169
4642.035588
56398.10123
32177.91397
58916.03285
32181.08731
11456.41047
9191.694963
7807.513349
10165.45836
13215.77413
8686.668334
7898.480775
6602.503046
7504.977978
4631.444624
3459.778701
4794.487511
4466.453693
5590.854394
4420.077337
5521.782097
6066.637644
6704.108847
6604.300964
6212.881656
5876.10168
5811.592401
6642.750516
6380.707578
6003.130758
4628.613007
5219.11751
5251.555975
5053.013076
4189.619564
4754.504865
4654.994502
5610.534546
5335.250589
3899.78917
4035.316672
3967.362073
4511.201385
13449.53996
28722.79111
9665.633588
6080.722272
5387.956429
7208.184242
8281.140143
6647.680936
8436.682945
6369.236874
7460.161745
5778.593072
6422.165621
5467.168797
5027.695744
4656.882061
5655.136491
5613.944241
5033.762199
6157.741427
4536.43945
4508.540383
3421.476106
5007.70687
4230.347484
4327.282881
4541.390771
4758.426037
4372.027208
4044.710717
4535.499839
4218.653183
4863.96847
3998.73608
4301.394418
3721.041846
4125.707586
4727.39416
4734.822036
5573.702954
5709.687665
4930.399929
5792.922622
15514.05994
13319.75571
9757.602857
9871.749369
16558.83491
8156.182007
10112.09754
12745.98877
11329.22781
8673.577589
9049.435512
8328.333131
11215.2694
10879.42999
7977.64148
8232.104151
5708.153701
5704.859854
6999.453248
6409.64818
4596.043072
5219.862315
4816.102074
5322.157705
4794.755273
4096.648902
5765.91071
4378.906072
4252.453033
4302.209696
4295.131201
4458.063742
3797.39016
3493.444641
3844.85915
5765.893111
5468.756753
5050.107335
5364.978381
5712.270845
5319.393464
86433.265
0
20770.73008
19368.71935
13211.52798
8398.36925
12411.28782
6099.746994
12104.35525
12031.49578
11708.45774
9165.947753
8019.858531
6217.727412
6000.034735
5198.014241
5722.815272
5774.929985
5734.882317
4717.305014
5082.134569
4441.702225
2885.422396
4964.542159
4442.946885
4628.350561
3680.093127
4573.012386
4696.625828
4615.980121
4046.269117
3290.299653
3462.75757
4636.879067
4975.003587
4723.379019
4755.9481
4945.041809
5068.101792
5350.71047
4722.983081
4159.338902
82530.47356
22398.43791
17589.50897
12034.12631
16694.84893
8561.304225
9718.610764
9592.841503
7530.220915
9003.155614
5641.759464
9158.923142
6487.681201
6975.185116
5624.155895
6004.767968
6601.177514
7328.965666
6775.847634
7352.691419
6029.854077
6017.56885
5300.68095
5168.487983
5223.064288
6272.331998
6156.519016
6724.021306
6380.796089
5982.826999
5548.274581
5273.784445
4742.74121
4004.530443
3988.310514
4113.644571
5125.373952
4601.006787
4665.975331
5145.74567
4740.743227
5257.253296
35064.85768
14134.28726
11061.46102
7999.430699
6890.00353
10339.92639
9448.661775
6756.085389
6475.547078
5482.576945
6463.9695
6993.610873
7732.191549
8143.587093
6584.130412
7949.126665
8378.64452
7627.488175
8950.695374
7806.422783
8474.614864
9024.518937
7992.983674
8207.119047
8344.007059
6353.268819
7052.622846
8029.943932
7212.313907
6540.236518
7012.917465
6429.33352
5011.378991
4947.093851
6260.902795
5810.138185
4797.526376
6211.685806
7507.615271
5908.758957
5885.826898
3166.592838
0
25424.7242
16473.00095
12288.18049
24744.78281
26390.92021
17176.61191
13667.58554
5273.900373
10869.3973
8773.008665
9251.069052
8385.995385
8681.709123
4792.256111
7571.105339
6118.065095
3874.870917
5806.835829
5728.212655
6533.647458
7536.206017
5944.250501
6317.899399
5040.849613
3967.595569
3603.85754
2452.804055
3390.985226
4714.758088
2519.76694
3668.735932
3670.58674
3162.607657
4372.339302
4421.74979
5457.897496
3582.753726
4215.516548
4214.896031
3993.273971
4038.864016
3261.031387
2596.910164
4872.404395
4454.114677
4278.203362
11099.15477
16834.95895
9768.836974
4712.468741
3207.80833
6564.822869
5137.88258
3020.60943
6973.140705
5646.753882
5746.234877
4638.196193
5544.327706
4913.423758
4110.448218
3912.439509
4280.450127
4016.082929
3137.351645
3294.841285
2676.33922
2104.086677
3117.703258
3231.585919
2555.473341
2878.677546
3040.801439
3262.035816
3201.352822
3162.120955
2971.201499
3146.298907
2789.492341
2526.368575
2751.294299
2422.009805
2429.941875
7671.757533
7105.892634
3327.631281
6022.151084
4224.786657
2655.651979
3445.090863
2157.48139
2799.717799
1471.483715
5389.066253
4085.739515
2530.64609
5002.547507
5755.013126
3499.328368
3091.729603
4354.807586
3396.532237
2445.600295
3026.244571
2778.880925
3460.748911
3088.899573
3132.763056
2048.119905
2863.444187
2063.238659
3308.581548
3184.76369
3072.163948
3290.629211
2831.889626
2711.830972
2928.235325
2802.171505
3228.826781
3538.054399
3320.848684
2434.308497
2948.767953
2959.511637
5628.96809
7819.13799
5871.691665
6909.976115
7110.979235
5814.072734
1787.471041
3070.751001
2007.162927
1748.65425
2571.684892
2584.229578
1565.902187
3229.594609
5107.808855
3777.877945
2327.108353
1915.99178
2729.753288
2904.453149
2962.344754
2511.071285
2395.484353
2048.505003
2196.608676
3157.336155
2866.298381
2635.361406
2167.804347
2455.897571
2472.756876
3231.625464
3784.416276
3568.153838
3530.05151
3426.815549
2956.917802
3114.332495
3002.884747
2648.129824
2814.353426
3060.110303
5442.10331
9406.561218
7168.029092
7682.654081
5648.330626
9832.716918
4675.497672
3516.161977
1733.304425
2306.60664
3698.128464
2659.487721
2754.957528
1843.720679
2306.903891
2094.632658
1749.320928
1890.049329
3296.209961
2766.214962
2932.097698
2252.970468
2515.392702
1891.832195
3823.359727
2072.352438
2928.5078
3138.584281
2868.063909
2701.996488
2504.189253
2644.360932
2903.561261
3390.54067
2981.180241
3132.543172
3031.774226
3073.246233
3279.395201
2657.405537
2855.080071
3129.678745
6344.39663
3020.394617
4475.239496
5433.686762
4200.220107
3412.01234
1944.303792
4306.455346
2159.754039
2149.901277
1912.228536
2785.071665
3878.662507
2076.496708
3035.549696
1419.978317
1353.27019
1514.435902
2369.049278
2466.65634
2294.668866
1988.048595
2950.383295
2342.333103
4017.734741
3258.571225
2757.504607
3885.682521
4290.879411
4630.99915
3313.799829
4114.250922
4246.132545
3851.776914
4670.790849
4253.532518
2870.120774
2848.623651
3256.905752
3822.753907
3734.958879
3944.04135
5053.755292
3676.375801
4377.114616
3174.823989
4069.185654
5956.905978
1751.932814
4862.486734
1783.484187
2472.23249
2501.744146
1437.599111
1303.10334
1492.905659
1372.729436
1042.355687
726.0241445
919.9057375
1649.735066
1738.6824
3137.663815
2899.943446
2893.366675
1907.745594
1719.27888
5119.731911
3545.625123
3475.593108
4499.238194
6291.970838
4005.683627
6182.441911
4587.482823
5578.502277
5975.411646
4671.219259
3195.036008
4250.567748
3998.052042
3640.25108
3737.658324
3488.832815
4135.576844
2657.186318
2422.853103
3221.908815
2195.37073
3227.518345
1256.992568
3794.656902
1747.131148
2248.510846
1937.063141
1714.776391
1307.335851
1238.451731
894.7752879
1057.752087
297.3514976
16098.61103
16043.44567
5169.788961
5559.816978
1813.799559
7309.492243
6068.754236
4987.0523
5518.044157
5252.967055
4936.907919
4509.980966
3824.050518
5014.397348
5385.315281
5086.709446
4096.002182
8686.933532
3870.996634
2754.853637
2165.438432
1925.229384
2654.076819
1872.264301
1515.772203
1216.874016
857.8510742
969.6948787
946.7871014
675.4620489
652.7893466
366.7864691
208711.4651
3602.047789
4911.276802
8462.565556
6285.090585
13183.69293
6385.93805
7238.411164
4652.219402
5906.722701
5338.04834
5172.923258
4806.699476
4442.846001
4223.608118
2990.622199
11930.26027
2867.205746
2063.482463
2528.87035
2414.941455
1411.312067
827.0943469
1220.475037
1297.410303
701.2144228
662.5526647
321.3030261
2.276452337
2.473160227
2.459441044
2.48410478
2.501476375
2.430553422
2.35440398
2.280476897
12192.39335
6148.000725
20858.74249
12815.5314
13139.98513
13695.71471
9847.781769
8414.970327
8628.417344
6720.451182
6238.925264
6138.442064
6130.076277
1882.396573
2265.784215
2446.735256
2480.52077
2305.423557
1924.256055
1820.878994
1263.491606
1005.403658
635.3785718
383.017264
2.336621327
2.541235271
2.686968291
2.871172558
2.886959895
2.935375735
2.901493806
2.916680426
2.827682905
2.626965128
2.43139397
2.309440491
0
27168.23539
72216.49651
28234.62981
14133.93097
15048.7073
8428.146274
9442.372319
10215.27076
8027.590416
6381.935805
2816.154157
3062.223597
4021.62624
2023.576906
2298.982096
1515.960621
792.9293513
800.5901419
525.195002
291.662288
2.208157878
2.512286924
2.767624896
3.075800857
3.163949109
3.302443171
3.39375655
3.411343164
3.358068479
3.380732224
3.263034297
3.161381393
2.878357153
2.709294778
2.488958999
2.2340005
23352.15078
13999.27566
11819.40126
9392.716978
8463.5781
7363.18811
12158.4133
10172.208
11907.33276
8124.535596
7654.247114
3504.517071
2814.031338
1715.703524
1663.468164
1663.943459
656.725625
591.8841878
418.6758364
2.322124797
2.676236334
3.027654341
3.233143883
3.427143763
3.563314432
3.81865113
3.837151374
3.787646633
3.832375437
3.754272224
3.728107504
3.721951381
3.477265938
3.110341267
2.907487003
2.552145848
2.306482039
0
0
37069.99333
16055.50467
19482.90516
8484.260402
9058.405172
8332.994421
6946.574507
5817.574653
1721.784375
2597.203856
1807.666993
2475.153125
1215.934983
624.9295148
427.9258485
319.1788717
2.392520149
2.793448752
3.067591503
3.417513033
3.650447033
3.745725743
3.801603844
4.03089053
3.918497883
3.848511613
4.00396737
3.945162018
3.931509795
3.881735778
3.812572547
3.511632838
3.316421253
2.924713488
2.71981674
2.31958849
33436.25662
20724.88198
17239.49248
10568.9942
10449.74839
12389.18914
6158.128229
6282.597531
7495.78597
4961.795103
3569.292677
2601.871343
4495.948124
2218.987204
1587.32884
784.9962131
369.113463
2.349572515
2.614035224
3.019826048
3.470166618
3.673636326
3.9336141
4.01995099
3.902443764
3.881603807
3.597513808
3.628984421
3.656242566
3.675723179
3.779510525
3.992222262
3.886890516
3.867395727
3.599735472
3.342324274
2.967773104
2.527993018
2.191101864
73597.17878
28289.62787
12975.5137
7686.515377
13184.64332
10866.13012
7110.894697
10775.52021
3130.661951
3285.503208
2831.57294
1844.771408
1711.418012
1305.139109
866.9095717
375.9543293
2.496782514
2.933553735
3.322466667
3.55780083
3.9606284
4.026077012
3.732118589
3.432794667
3.156629002
2.915776841
2.830172029
2.805370526
2.97237358
3.163421997
3.501871533
3.832098427
3.917347735
3.827975393
3.697408394
3.244793574
2.940733275
2.398977474
0
85663.46261
27698.51299
14701.55613
9029.54573
9623.017581
15047.61761
12095.46831
1812.153697
1869.591377
1696.489303
1725.13364
1642.232677
1274.534762
615.452223
2.323114926
2.777759917
3.206403434
3.613976481
3.86078309
3.951203411
3.701274315
3.328307255
2.816011202
2.334237763
2.086887089
1.949349865
1.94514184
2.115267623
2.361614156
2.748355299
3.333617521
3.716662288
3.984215602
3.948556949
3.60314617
3.143561465
2.657368839
2.252388215
211269.1212
63147.16002
15632.0188
11856.61381
6019.306232
5870.994786
4685.115288
8819.456757
2090.240362
1775.674685
1420.315991
967.231249
599.0570592
364.0386278
2.428243908
2.977674533
3.500170439
3.885376699
3.997912072
3.805560659
3.327861218
2.646121855
2.091694068
1.663689114
1.398701818
1.27890997
1.27231469
1.38343299
1.647377089
2.029736524
2.623888921
3.391795958
3.844295454
4.018066381
3.813707509
3.389750057
2.945397721
2.480227205
47133.83516
13313.94883
10299.22937
8266.409843
13668.63388
9391.624439
4388.374916
2986.223832
2294.013614
1297.081314
2263.800436
982.5928405
442.3112985
2.286732427
2.639707909
3.076294368
3.604351474
4.016008521
3.980045457
3.565271443
2.811756609
2.089974532
1.529408101
1.157415918
0.9488377939
0.8555145883
0.8502467069
0.9437482753
1.157399455
1.497691762
2.088996835
2.848138268
3.560605123
3.998677976
3.846047392
3.540909472
3.128114485
2.651255443
2.215914763
23036.60044
27849.99694
11204.14538
7246.197997
5734.007595
6099.032156
3741.880128
4527.129082
2061.067569
2178.851437
1052.942573
489.266082
2.394482043
2.826271519
3.330819697
3.752371779