/*--------------------------------*- C++ -*----------------------------------*\
| =========                 |                                                 |
| \\      /  F ield         | OpenFOAM: The Open Source CFD Toolbox           |
|  \\    /   O peration     | Version:  v1706                                 |
|   \\  /    A nd           | Web:      www.OpenFOAM.com                      |
|    \\/     M anipulation  |                                                 |
\*---------------------------------------------------------------------------*/
FoamFile
{
    version     2.0;
    format      ascii;
    class       volScalarField;
    location    "3.996";
    object      mfpToDx_mixture;
}
// * * * * * * * * * * * * * * * * * * * * * * * * * * * * * * * * * * * * * //

dimensions      [0 0 0 0 0 0 0];


internalField   nonuniform List<scalar> 
50792
(
11079.94629
6306.758702
3156.280272
4134.133745
3514.311627
2381.996665
2033.576514
2146.981497
1839.697509
1778.687116
1597.28842
1625.602279
1366.429998
1492.675688
1331.406508
1120.546894
1101.364359
1024.825269
1047.191704
960.5821448
943.2476221
938.2552802
859.9959219
840.9131447
853.3144319
684.6369036
913.178988
805.3479733
809.5967754
814.6036153
760.1847862
760.7402204
665.7740063
758.1101669
806.4202131
797.9073208
817.11393
838.8384889
784.0247342
798.4851294
772.26882
776.8416647
7021.642915
5519.772102
3725.82548
5326.915113
3700.395992
3307.609362
3010.235673
2484.877623
2333.930282
2049.531173
1802.872134
1692.114321
1508.888465
1426.362899
1282.468498
1322.159938
1279.520273
1253.88072
1218.161074
1199.847715
1192.605271
1181.899919
1108.918865
1086.865604
1021.582747
1076.236807
1085.311573
1047.140358
1010.306631
1017.884806
1040.527668
1078.859938
1082.386662
1126.180054
1113.745179
999.3620775
1065.942284
909.307649
988.5993817
1002.950787
1034.581917
889.8604206
14204.1695
4704.950279
5313.053565
3991.377206
3277.924322
2734.052131
2109.052143
1991.652265
1690.813229
1688.48513
1580.828037
1418.543464
1434.551385
1473.642044
1435.814544
1258.692561
1269.947261
1210.18935
1130.429031
1104.835202
1135.812299
1147.890833
1051.964689
1059.518307
1066.687591
1038.736935
1083.23978
1077.445691
1048.629786
997.1918416
1010.565527
974.8158953
996.6348163
955.7723785
945.4703599
987.3849368
966.2046882
986.3589161
926.1731724
978.5754787
1007.055488
948.3197025
13792.98327
9015.908952
6735.42318
4522.616226
3670.241586
2325.283426
2649.440313
2261.02071
2225.379589
1924.867449
1574.744773
1587.421025
1354.563153
1497.74931
1434.404334
1228.911617
1261.151807
1260.777053
1321.768235
983.5158647
995.2938348
1014.653957
1134.949335
961.0912119
904.0956597
1043.619697
1132.679941
1148.5816
1005.374814
952.0667053
1129.355539
1077.720361
1110.884882
1100.170548
1028.100596
1087.682349
1009.176822
920.486422
823.8671102
886.7449409
865.8599908
853.2726962
12016.31455
6340.788515
6810.399018
4186.623302
2949.860561
2745.926137
2285.817823
2290.766956
2028.474901
1730.592834
1723.864154
1404.616282
1589.269324
1483.571355
1318.780221
1269.017983
1213.746723
1246.967304
1113.980021
1091.433998
1061.031066
827.2879907
884.9012212
987.7718929
867.2315371
947.8094969
1017.582886
1093.027397
1076.00671
977.6017282
986.1616647
1186.490078
1109.937872
1172.761893
1115.987464
1003.378434
1016.42345
999.3064089
913.9800543
1002.588446
1035.41526
1044.882984
4260.604129
10637.7826
5410.938895
5111.46638
3988.786058
3340.447907
3024.97966
2679.592606
2163.428762
1946.984395
1795.115742
1570.86222
1650.257947
1503.498624
1469.237307
1415.720074
1320.310543
1121.851921
1109.339747
1035.771519
987.9580919
886.7774279
822.398692
855.5851602
1029.953914
1018.485903
954.0989373
891.8753846
885.6697827
1086.493548
984.7668593
1153.933216
1022.44371
1074.167758
1083.84999
1055.250442
1142.256028
1024.024261
1094.610827
994.1605185
1022.394477
985.9206508
6152.309126
5408.499571
6331.390715
2350.513496
1943.365375
2321.094788
2340.464941
2233.939621
2244.429923
2023.292522
1854.334631
1752.275757
1557.928248
1563.430516
1501.103851
1335.894086
1239.83949
1243.195756
1152.226317
1027.403978
1018.090012
907.8543753
923.2094499
992.3150722
878.1416849
892.5188689
1004.360481
974.3212783
1054.765943
1002.57321
925.9697234
951.8005391
1025.427613
1023.24726
979.8290454
999.6604393
983.5892732
892.3824693
915.9378485
858.0058898
894.9101255
827.2836324
7379.163203
11816.64814
3381.189593
2701.131567
1817.415805
3045.252092
2715.12682
2454.918823
2049.680636
1881.593756
1802.702656
1533.191662
1273.024546
1329.233159
1196.369056
1134.982002
1029.700588
1088.052636
1138.778556
1125.692039
1165.921789
1059.050969
1048.438209
1075.775374
1009.146288
935.9676116
913.8607722
966.187195
982.1878134
928.9820588
875.8328722
946.468029
917.4447567
968.7805105
951.3035522
957.7924749
910.8982077
859.5703214
903.0471401
986.149655
966.4281588
927.9920681
5555.881633
8795.781785
5064.39637
4036.057745
3002.804904
2689.654031
2365.200163
1978.214837
1822.717129
1738.426484
1555.166409
1454.614911
1297.663343
1365.27215
1326.966554
1226.513592
1207.511809
1252.107754
1224.673948
1128.844186
1190.780873
1044.11384
1269.19248
1266.775073
1103.674476
999.6127133
1129.292192
1072.79791
1130.188744
1019.428145
968.0377029
998.5434969
942.0018063
993.9513397
937.9300125
1030.334328
852.4886619
805.4457421
928.53782
874.1029854
937.9466728
882.6030117
4144.884581
5291.163317
6563.624832
4842.448015
2943.496238
2679.388469
2375.588632
2095.578943
1868.797976
1726.326876
1604.453378
1453.950112
1531.557152
1491.218302
1462.382404
1387.153228
1415.019276
1276.383757
1072.533267
1110.361715
956.6848723
1138.989564
1054.439326
1104.274409
1036.734218
1013.161603
1003.142493
973.7337867
949.039401
884.9487433
1007.959832
986.7625976
1062.141275
988.3146808
1040.434958
987.3398667
930.0068867
918.9504869
1013.067598
891.8543941
935.2362173
993.1021623
4468.703007
4785.773995
6295.70713
4308.9614
2772.433424
2354.433149
1946.095086
2018.041455
1712.636525
1690.649857
1599.767955
1593.045296
1623.434332
1457.428751
1378.194442
1332.665906
1299.301316
1256.690356
1189.372966
1200.426272
1226.509594
986.8841711
1033.074573
1129.440311
1143.561348
1080.977675
1075.253325
1021.300235
1039.637829
1014.510444
1026.261952
1039.179671
939.6092358
985.9685701
965.1622996
1001.213378
899.3116126
905.1612789
871.9747509
932.5743406
922.7923633
805.8574826
5990.03867
8509.494576
5905.290308
4212.216393
3196.150036
2415.327619
2138.450764
1969.635121
1685.166085
1721.432711
1535.765577
1276.708558
1308.68395
1353.643097
1286.38097
1261.961651
1190.889323
1149.79624
1010.045228
996.6739926
1044.764184
1059.678158
1073.019008
1060.37179
1061.151643
1070.222968
1033.225423
1082.225536
991.7875861
1105.56534
968.7462424
1031.411757
1007.488282
1209.141999
1264.559651
1209.320722
1155.549946
1077.403474
1069.302703
1027.541817
998.8068743
972.7262684
3443.778098
9823.220268
2886.378779
2966.204852
2995.611634
2484.400745
2216.297754
1973.989319
1821.682948
1691.009234
1433.673881
1368.968191
1380.87118
1362.838406
1408.4957
1215.083427
1267.838641
1230.513812
1101.533281
957.695962
1093.870575
1055.937615
978.1587311
1040.273891
1011.468457
1026.761243
1001.090617
908.4807793
849.7001455
887.2787931
978.899592
973.8058586
886.6613349
884.1047425
897.3821862
885.7414456
936.6800585
1072.12382
1083.991206
1065.073847
1085.317222
1059.743394
2888.301525
5413.3181
5515.43469
4299.319307
3254.606842
2943.809272
2911.050643
1911.961723
2006.859703
1941.564064
1870.502285
1665.819772
1770.640984
1454.207239
1449.286454
1370.637234
1282.035071
1233.216706
1270.876836
1269.661581
1233.113693
1125.204033
1029.442438
917.9955805
947.6458435
947.6586228
887.1328742
864.6700539
869.4460676
1097.984494
1039.253122
936.7909621
976.6614237
1015.999842
1021.553216
837.4559831
896.6680518
988.9826859
957.0057795
974.7331436
959.5229946
1011.49879
1958.793613
9836.059123
5907.819928
4457.803624
3652.331935
2868.786373
2355.009706
2094.251712
1960.409895
1779.51174
1851.424403
1738.927283
1663.634562
1555.097799
1373.400357
1360.745404
1287.614393
1253.108078
1169.292501
1188.221394
1253.544603
1195.761032
1092.416966
991.1453165
1059.326906
1004.818772
1174.292216
1063.083809
965.6847581
858.25438
909.6906178
978.2493261
1009.2239
1027.641754
896.9821862
1000.822271
972.0762181
956.2498316
996.1741643
1159.294555
1033.451284
1017.863394
3923.671496
5559.927224
3618.147812
4408.616726
3558.978743
3262.022037
2976.943544
2318.083887
2151.797874
1868.153416
1755.385227
1694.974336
1587.603151
1445.60687
1452.042958
1274.074687
1093.806288
1156.519579
1175.572533
1000.610978
1035.201648
1008.360096
1167.716142
1083.451744
1046.346564
1042.392774
896.1127563
878.2208914
1005.23593
952.5272317
1067.577571
1144.614644
1067.342924
1207.478385
982.4864317
1141.822341
1032.125317
1172.695986
1181.581665
1051.61276
1054.749344
1010.782413
6447.021393
4764.506719
3304.684663
3792.14103
3639.900656
1435.377798
2428.721679
2098.08663
2086.204411
1764.089788
1586.326004
1653.331082
1446.178427
1580.050721
1407.737344
1443.345459
1465.012626
1277.188751
990.8797681
1170.281641
1281.543643
1226.210491
1183.17054
1063.803807
1050.594459
1157.083526
938.1322647
1018.38276
930.4344762
990.6596587
1007.023352
988.467235
920.5156456
860.4713882
810.0862222
842.2523562
809.3275172
831.5815819
847.3891106
804.432703
920.6239681
897.2033953
2624.658713
10294.54315
4902.184898
2583.758802
4129.561962
3016.475091
2738.682657
2508.374608
1984.608773
1807.381636
1745.448646
1740.110973
1696.452723
1563.192897
1449.160588
1283.122132
1310.113357
1237.795115
1040.352337
1029.087421
1180.603061
1162.378333
1234.549618
1041.03598
1189.65175
1096.314726
1203.47967
1368.540144
1280.155887
1240.589357
1083.89708
1043.476295
1100.502791
1029.370283
969.6353941
873.0475705
836.8486717
1019.734698
949.2493316
942.4100689
989.2508717
830.4920006
4992.61063
4815.226341
6574.254941
3788.140157
3626.10606
2967.606905
2325.200062
1986.219023
1895.264006
1771.827151
1507.278429
1512.018993
1440.427583
1355.545005
1227.145392
1193.98382
1209.022663
1169.935172
1143.230024
1115.420558
1109.092599
1100.470639
1064.29957
873.9648861
1028.833364
1014.162067
869.2638479
930.1570934
933.9542024
895.7858442
943.1476465
871.7621255
1015.899758
1028.621245
988.1028848
989.6130477
928.5908327
1005.959514
1070.975934
1029.483297
991.2616401
889.622148
2781.444909
10252.06159
6387.069564
4149.54237
3140.415891
2879.430004
2290.913793
2019.208804
1713.825202
1570.191318
1452.915465
1553.324266
1441.842034
1314.812388
1299.908609
1157.869747
1151.196204
1097.162163
1228.660789
1032.299471
1067.9411
1045.015691
1024.372667
864.5407026
1005.211512
1002.810445
937.0706473
979.0853945
1145.594918
1082.731651
1100.73746
1202.785325
1103.752905
1012.768729
1107.422975
1132.409253
1104.927993
1070.901826
1015.394615
1039.977193
1081.974673
1045.831961
1769.040697
4038.455329
4949.264215
3748.353446
2753.155577
2424.625019
2040.149872
1923.249281
1675.952437
1586.497332
1384.84775
1202.222792
1263.874065
931.8263345
1188.577709
1097.312287
877.3128604
964.2311239
997.3625868
949.3102402
848.718521
987.1696722
1077.833522
1066.543813
989.1532484
976.5625535
922.1639791
998.844845
955.1722468
1128.285035
1076.239013
1102.446618
1071.715744
1149.931272
1182.012394
1060.132163
1147.858266
1078.577085
1195.965065
1254.856814
1222.825284
1195.324223
2936.430408
5821.897907
5283.134099
4843.038409
3679.837393
3343.169355
2690.981337
2310.442941
2110.420466
1857.122075
1645.692185
1459.785897
1353.200046
1283.516621
1027.770049
1132.058017
1108.56125
1013.333651
1101.66296
1046.977334
1003.304246
1015.653133
890.6391046
878.0579452
1068.839106
1043.753409
990.6350883
1045.583685
1098.133586
1007.264595
969.3889936
1052.22379
1007.453534
903.049549
1150.376087
998.9999307
1144.742507
1090.486548
1345.02872
1207.897593
1256.073227
1248.341687
9928.72639
10035.59602
7290.928242
2658.406625
4241.837231
3601.569086
3149.285698
2514.76193
2038.609283
1881.072831
1901.060674
1766.688588
1634.180557
1426.676938
1539.632924
1309.54799
1294.711393
1188.290926
1190.768584
1181.501299
1075.347031
1021.461666
960.2177264
1013.577055
846.7800269
1015.68672
1015.990296
960.3061625
952.5429977
952.9370934
883.8992792
763.7836645
823.6894626
919.4248506
850.3627324
947.1326351
849.9608527
861.4880664
923.3462148
1002.364567
1036.372206
969.8092613
3138.862466
6425.322826
5959.444787
4533.473659
3182.736862
2611.13022
2193.765838
2207.32374
2160.645392
1814.414449
1486.825476
1573.819921
1422.715761
1419.523201
1389.226212
1382.798822
1221.919453
1095.013351
1127.890447
1225.097368
1203.328766
1143.080119
1095.420277
1130.697122
963.5492041
1039.03732
1030.808949
1254.111723
1226.693104
1164.00931
1128.470961
1026.745547
953.88373
1024.454502
1078.484783
1074.982378
990.3532613
868.7887337
1007.464594
998.9580999
1020.795118
1068.539363
1932.65646
14095.55342
8414.870421
4920.647368
2673.606724
2818.573295
2643.198409
2145.933607
1946.788712
1718.310901
1610.351419
1434.486137
1367.987386
1358.947495
1209.461872
1152.134339
1188.769918
1084.722187
1181.48424
1032.956021
1153.538297
1130.071152
1142.845305
1095.511591
1049.148792
978.5401525
1049.066525
1083.677343
1114.164351
1118.157018
1081.246014
968.6218117
967.5337999
948.9401891
1041.620366
1040.082147
1103.033611
1054.129949
1145.672799
1151.342875
1110.549937
1081.538953
1879.817122
13691.81241
6587.850978
2509.184521
3866.913801
3160.493888
2430.677848
2373.34532
2263.973727
1872.144425
1652.182069
1686.97439
1428.289528
1238.430221
1173.092514
1182.354373
1207.695445
1252.711083
1310.992919
1255.823004
1340.480002
1276.888711
1120.706846
1126.798622
1131.808745
1018.714701
883.9155301
863.8104976
922.553023
925.6675617
923.6933271
1081.935051
927.3811018
983.1354421
913.8554236
975.1975031
1066.839936
1057.345551
986.9845653
1014.809891
1061.215729
933.435753
8049.607662
12744.24896
4996.766527
3777.339991
3723.699279
2889.397178
2110.314152
2030.725711
1787.316446
1571.020756
1631.137015
1470.04527
1426.089789
1241.869064
1250.569538
1214.265141
1014.166784
1018.204604
1132.88664
1027.251299
1041.704114
1208.793017
1164.978919
1129.366324
1023.477519
1125.074648
978.3504026
969.2118174
876.6534306
951.2004701
891.3188948
913.3929822
951.7152473
919.5164438
986.867974
1014.383361
1054.661628
1124.191473
1144.957359
1075.749092
1056.263309
1016.038157
4259.244712
9730.791291
6947.096726
3544.678028
3249.927132
2395.611604
2397.530693
2221.62837
1884.676028
1459.901708
1463.170992
1435.964994
1345.42261
1243.174314
1282.517831
1265.848232
1192.456637
1193.177648
1150.681691
1136.45272
981.590784
1103.819451
1095.468054
1071.508206
1018.559929
964.7892469
893.2914082
884.5135643
859.7857023
859.7171556
873.4670872
854.7499787
871.2093215
858.3058992
840.4930479
915.4116204
877.6773379
916.630209
910.7384343
977.6267923
1007.35086
957.917224
2711.31928
8058.155824
3570.045738
3377.442117
2826.717148
2738.599096
2461.155521
2269.65437
1974.409762
1796.592793
1628.805074
1478.683175
1387.820148
1440.461427
1353.701032
1364.130763
1274.078113
1058.280899
1230.533143
1092.487516
1094.034873
1187.061299
1146.41672
1013.390897
987.4889137
1041.142366
941.3552975
1049.711939
887.0933329
864.4592757
1015.631562
1019.480657
946.6710987
1012.304864
979.7287991
871.3505953
924.2593069
915.4357152
889.1640846
882.7879696
872.4425535
896.2443782
5562.348797
7409.445933
4636.089699
3561.897903
2316.53482
2640.061156
2377.781763
2002.914061
1848.324376
1479.01219
1636.156419
1480.51545
1290.108035
1143.788624
1114.583751
1064.356129
1094.674659
1068.789298
973.8887583
1131.754279
1084.165241
1085.786052
1067.394713
790.4038079
969.591415
986.0886042
1065.419033
1060.345779
1194.196051
1232.452275
1150.539201
1243.172791
1333.497975
1121.26306
1216.421958
1117.224601
1075.993991
993.3353437
1074.517606
1068.036314
1293.745806
1193.497561
5325.109401
8721.559977
6422.276995
2506.816985
1920.315393
2865.355631
2317.524112
2439.264167
1906.323231
1773.160395
1732.605234
1611.216634
1437.961769
1323.149253
1340.896106
1389.868934
1231.803301
1367.279862
1253.283793
1286.552178
1034.057555
1170.552714
1090.163948
1218.524672
1071.004901
1199.287009
1143.174064
1176.067922
1048.878713
1145.080841
1042.083769
1069.05135
1091.616336
1138.324687
1113.525829
1083.545511
1111.004511
1065.217887
884.5504759
1011.598665
933.0380832
918.4422355
3407.206755
6353.288792
4786.828693
2619.254186
1988.211302
2881.486958
2327.125995
2205.508536
2122.176299
2095.461689
1779.240754
1660.815048
1480.477033
1273.940547
1370.423251
1274.516138
1176.59161
1174.511936
1157.168052
1037.88701
897.8124978
1011.140839
1021.744516
1007.289526
957.7789288
1068.355293
1082.371978
1035.521042
990.1396394
965.4422045
944.8015867
898.1461136
1004.415541
1014.146805
1101.198539
1044.456986
967.5166428
978.9728335
1146.091478
1032.34551
1129.100923
1087.851122
6603.606287
7548.732115
5444.1187
3102.526375
3745.118076
3122.648278
1248.909194
1674.878211
1735.108898
1557.317168
1533.829255
1348.644606
1271.863449
1176.426371
1054.573904
1152.321961
1106.310355
1034.214599
1152.376787
1012.83025
924.0744179
912.2515635
893.8076566
814.9928363
930.7986844
951.6363365
1133.464502
1135.690102
1067.543022
1031.598751
967.5199293
943.9649497
965.9042346
893.5381945
1029.3126
1018.651896
1029.782162
1024.572696
979.3966175
944.2254714
964.7331746
960.1727476
10411.43169
9571.648509
7331.667392
5315.879457
4112.389346
3058.457026
2377.707916
2095.910228
1777.615609
1782.566827
1461.951638
1393.689068
1335.072517
1295.304301
1186.627526
1153.497551
1121.043058
1030.948038
1108.992725
1084.371027
1040.361594
1085.463503
993.5461852
1086.812456
1119.622415
1002.081829
947.6750744
1044.531881
1004.424075
1156.658027
1128.720244
1074.215834
979.4283266
1082.258261
991.9545737
1037.643946
1072.270213
955.6709639
985.3697696
995.3100455
1001.486205
936.240147
9047.599286
4765.744359
5437.319654
3847.313208
2617.76907
2856.118529
2295.288816
2081.37596
2157.738715
1783.179046
1713.785286
1864.625138
1788.065353
1728.91012
1487.852028
1483.630945
1536.09803
1294.917734
1438.476326
1395.657802
1236.725926
1062.4826
1181.868687
1016.802728
1065.132774
1170.549939
1156.430194
1125.206293
1200.468468
1097.46914
1214.615927
1111.226218
1081.993713
1020.1552
1092.121979
989.2327871
951.4356261
923.9570722
935.6935228
1080.729707
1068.406939
1007.57787
5054.163441
5151.475527
6154.586971
4715.479138
2883.058921
1887.629725
2535.121185
2084.241362
1840.938038
1718.329296
1535.353961
1460.836024
1344.686368
1265.09912
1393.778306
1335.723532
1165.463681
1125.558371
1087.190033
1052.629083
1178.179999
1118.942907
1078.297697
1020.819476
1088.409873
1086.071929
1049.421472
1131.406512
961.078787
1168.463085
1118.065139
1125.670089
1180.031111
1052.136797
999.8038864
997.9183879
967.4617628
958.7475296
900.9143668
862.3117817
897.7938334
911.7364301
3793.747741
4776.071203
2583.378247
1809.754144
2654.555713
2903.01488
2299.15958
2002.779695
1994.299012
1571.097435
1549.87594
1421.39526
1277.438448
1323.237548
1196.321205
1181.533682
1216.600606
1098.669966
1066.617516
1099.711701
1057.110835
1033.406455
1036.85829
1025.309712
980.8439229
977.8976538
1003.825023
1009.67835
989.2353989
869.5367709
1015.177805
951.6658845
985.7704798
991.4656792
901.9568405
872.5552113
982.9800994
991.3397708
1026.348795
970.8740637
1009.029359
1041.409101
3139.180226
4002.539046
2741.959767
3890.079998
3516.735521
3064.533292
2652.155258
2370.288585
2095.633822
2076.428558
1744.65683
1796.96704
1683.202849
1530.021735
1539.121594
1275.937286
1349.727741
1378.848812
1307.509814
1289.605875
1343.380393
1234.91015
1128.175024
1085.196398
1176.539714
1114.391498
1097.76751
1118.257923
1114.403822
936.373205
1012.468289
955.8698296
957.1652973
979.7368979
1009.135082
851.2285043
1016.399543
1019.072005
1047.829185
945.9470083
1023.418737
1040.731691
4274.183004
11034.72876
6498.027255
4233.453563
3200.634591
2747.843673
2265.208901
2051.321906
1818.371488
1609.711379
1577.253957
1458.398722
1460.040594
1354.086999
1306.462927
1129.701014
1268.393065
1230.609273
1150.462263
1189.684722
937.2923767
1120.694579
1229.779214
1187.835781
998.2668583
1061.346061
1047.420902
1088.592261
1089.591894
1069.867118
943.7274445
923.0023106
951.3194298
967.3008503
1072.396602
1142.862121
1145.761328
1132.505615
1089.593621
1066.426266
997.6020462
922.1425851
2514.632861
5731.604095
5113.163039
3528.324536
3467.641214
3122.33353
2182.23031
2328.1147
2067.16841
1944.763624
1764.29363
1398.440719
1493.7568
1405.596439
1299.294473
1136.409615
1293.881577
1294.513089
1155.49558
1125.549361
1198.364927
1257.084567
1206.916543
1201.016466
1178.752304
1103.551004
1169.144837
1264.333193
1188.888944
1151.827951
1068.301028
1063.216828
913.7578201
985.4380721
1028.507165
1073.062883
1203.791614
1217.588648
1147.846709
1148.703391
1088.355035
1017.148948
3523.829605
8677.52093
6069.422915
4102.957158
3357.853163
2378.186157
2463.444201
2334.048706
1861.029215
1898.92436
1704.77563
1604.907227
1469.106325
1525.93479
1357.296731
1249.21693
1268.068523
1143.319915
1140.57412
974.3374727
1162.268785
1157.92433
1139.536285
1106.609265
1077.619515
1060.514718
921.7067557
1001.055206
1031.973685
1025.949159
1012.601214
946.2905842
1021.203823
1008.190444
1053.84874
979.6359473
1054.042085
1200.175214
1122.780749
1090.455261
935.7367014
886.8624817
10301.92564
9692.859524
4226.734501
3336.024874
2914.587601
2392.527406
2510.255887
1981.987737
1830.104819
1579.664385
1739.728502
1546.896386
1424.918389
1319.36617
1290.899087
1249.764995
1055.481197
1036.630048
916.9245574
966.4093363
917.0571327
851.9278047
969.6335506
960.6502199
873.4537252
839.5810548
805.9524242
803.4334417
819.3423405
824.4437964
809.0799687
815.1744866
788.6817155
816.0604423
796.8366689
759.5170498
739.7101274
769.5545589
708.6397266
673.119312
701.0554387
740.2445054
1140.140624
1505.747713
1952.450822
1398.143335
1266.261458
1479.472994
1301.689057
1384.036957
1000.091225
1101.615248
1115.08284
817.3359536
895.6289128
857.2400929
905.4738824
897.395826
893.4233235
841.6157901
869.867712
884.4137066
662.3040404
687.1138189
747.319538
722.7274587
723.6638964
686.9038481
603.7966504
564.0513725
637.311671
634.0740513
647.212428
616.5332094
611.90172
635.0294992
635.6941435
612.0674818
597.672691
548.5813333
532.4983654
546.2125099
504.4962803
525.4229644
1073.560487
1148.114087
1238.157962
1192.858397
1323.127974
787.7285578
876.7544417
525.0698072
785.4128111
654.1967069
842.9446781
629.8519655
531.5128609
730.9202682
758.4761899
678.6245779
650.2037121
597.8617937
732.6180391
557.361927
546.7536632
568.7968982
557.9674653
639.5896272
630.5238147
526.0924526
531.734657
524.8239069
523.9966613
606.143553
685.1830553
658.215661
638.5374664
552.5727484
558.1111331
481.9175978
564.9389492
559.9375624
534.3370225
580.9929997
560.4662817
610.5483213
1630.81538
818.351603
959.912769
1295.057281
1167.4065
654.0760496
511.2050506
605.4723537
530.0618387
575.0254235
728.6069511
522.2377187
346.984528
503.1332544
689.6030859
622.7844361
396.2991435
461.6374001
469.2871889
452.5488449
451.1041925
462.3747437
464.9152014
460.0930872
517.7561706
494.8015861
536.4993737
475.2463063
545.6390268
565.6998802
551.5508933
561.237734
523.6299785
511.380815
539.7252073
594.5457876
523.4585895
567.3814474
526.1277404
487.425922
578.7544106
621.4037209
1876.361956
1094.442348
1171.66488
715.9894948
929.4436409
755.9045179
546.0804622
656.2126431
487.4130992
596.3821804
469.707096
461.798177
375.4548286
329.5581105
463.9153094
389.4024673
322.0304604
339.8813289
439.2976975
421.1073483
421.3257646
419.9520387
469.549729
425.7788472
496.8261719
478.7690832
560.4844201
551.520627
485.8777212
515.8354362
610.2199199
595.1337767
596.8173274
653.2157394
621.4544665
613.4733925
660.6744133
616.293032
590.4133704
550.3783984
665.9958701
757.0453585
1255.691794
780.2523016
1104.885436
955.6528992
719.3738312
644.2496279
520.6718945
504.6620044
595.7848595
595.9771259
535.6865592
441.6708826
339.1700958
295.7586456
334.2204659
269.4477717
291.797424
292.7045873
328.4222114
320.8596373
410.5223374
371.1885959
404.5906407
341.4743092
545.8894036
675.3503236
624.4604466
589.1776944
597.10781
569.7005446
693.3778656
692.7042736
684.1551576
730.4198895
708.4386149
595.0560139
596.7193276
611.7786016
673.6963162
607.197546
638.3988795
668.7358702
1341.296757
921.0290223
916.5540055
679.8300717
599.6188098
797.3737761
498.3974496
504.0772701
495.6530815
422.5796817
399.8261622
331.5502826
342.4123373
245.981645
225.3016922
227.223091
180.9559262
211.1268272
301.5917662
300.6841469
369.7053044
430.5883067
439.5099422
327.1285782
405.5658565
655.8260379
808.4897571
744.5834681
651.8117449
877.1084628
990.9521168
801.6788396
732.6301728
755.8318128
859.7791346
782.9900438
616.0780073
594.5254395
632.829009
693.112673
709.8535028
700.7676969
1248.111611
658.7401991
577.6506688
574.2277712
525.0490028
544.2030226
439.3168283
511.0772323
431.6942797
460.2571823
372.2747928
257.6319114
222.7743562
196.0661954
150.8017177
154.781421
65.78897638
4008.459448
1181.320585
1279.509541
1222.461426
894.7061642
920.6616414
1340.745723
1018.876899
975.841664
961.4409907
955.1664073
945.5578342
968.3700565
896.9566913
841.8022695
826.5340493
893.9789857
1012.667785
785.1547283
512.6316312
412.1234699
433.3958464
445.6776767
419.7247522
327.3672962
323.0685435
245.3656523
241.1863295
195.6049914
144.8105144
123.8812989
61.50705116
1932.434229
1498.561061
1269.208744
1585.088408
1618.033215
1826.538164
1249.611111
1161.838312
1059.112844
1164.913285
1022.977855
897.2791785
900.9753552
857.6997385
880.5113633
1011.809158
773.3844049
605.4986464
486.0637744
429.2372561
470.3523656
297.8319465
195.2384483
299.1595184
207.3748482
130.1096627
154.7761736
67.94604405
0.4588485336
0.4806002807
0.4909108676
0.4913755724
0.4960687093
0.4937127604
0.4836634081
0.4656908267
1933.039103
1179.458267
2466.606587
1942.798841
2293.926297
2212.700428
1972.987385
1229.033034
1543.798693
1287.390253
1276.609416
1219.806696
1085.048378
786.6418232
651.9573231
562.5028999
483.9454174
428.7071733
345.1553829
320.1562236
241.3359508
211.2476258
138.9212289
80.57410103
0.4700487945
0.5076486986
0.5494233141
0.5661982681
0.5798963114
0.5832962333
0.587936769
0.5840330411
0.5641125606
0.538761892
0.5025829609
0.4692126474
4196.710866
3022.430747
3963.554791
3773.475849
2490.127506
2408.584223
1813.674509
1365.001292
1560.373674
1352.000021
1270.041927
597.7671625
483.8461104
397.7269046
432.9972832
413.3372785
291.2791355
268.7540568
219.9722133
134.5337909
73.46801799
0.4602323254
0.5066042036
0.5527050127
0.5914423374
0.6307323445
0.6585048759
0.6772210709
0.683765522
0.683071228
0.6692010444
0.6544246852
0.6321649854
0.5920225232
0.553227753
0.5039744821
0.4620348651
7978.96308
3790.810132
4324.784456
3676.699528
2372.743742
2405.323627
2166.962321
1196.258034
1529.115718
1289.116831
985.612619
616.7926315
496.4625014
365.8475472
384.5911294
396.1370198
225.5247123
159.0080994
79.10526264
0.471892319
0.5313911547
0.5915812534
0.6367021011
0.6749825798
0.7211954875
0.7482944782
0.7629290026
0.7533382955
0.7571500033
0.7526923296
0.7410178014
0.715531911
0.6811753888
0.6241462472
0.5827848504
0.5283270213
0.4724176069
14121.04654
3651.533208
3819.181155
4969.900697
3420.233361
2322.692103
1997.57162
1393.483605
1388.64036
760.8460613
450.7827813
403.1844605
301.4699308
326.8804307
212.6771808
152.3381276
120.561434
65.18532307
0.4716012976
0.5414130933
0.5979131679
0.6659440805
0.7173180369
0.7590841865
0.7688270778
0.7929329158
0.7902167819
0.7866840424
0.7868038417
0.7870308435
0.7867520401
0.7808808208
0.7642661298
0.713352405
0.659978852
0.5924538062
0.5340713251
0.4625888864
18784.94378
7202.456144
7240.00577
4173.509032
2478.624755
2164.761559
1723.853327
1591.01349
1638.621563
687.8177579
589.1336525
339.2646125
419.2578107
270.5803602
205.2937928
144.7007973
84.51376993
0.4639201512
0.5270606399
0.6044060393
0.6714833093
0.7306619435
0.780141761
0.7906377206
0.7770857245
0.7753239395
0.7440252422
0.7263727253
0.7276717265
0.7359138194
0.7571152762
0.7929371102
0.7894609092
0.7736795075
0.7216977805
0.6571356573
0.5923854083
0.5197505885
0.4598657926
13438.25347
8033.739185
3150.131941
2851.208503
1970.372037
1842.969738
2254.230286
1866.915294
461.948988
447.4115821
422.5491825
333.1665591
286.2926561
214.0852382
147.1111117
65.69919349
0.5067969665
0.5846024462
0.6574429983
0.7311305979
0.7807124512
0.7847888018
0.7560359206
0.7014605307
0.6400958401
0.5933143731
0.5698795504
0.5675626439
0.5932912398
0.6346615146
0.7043016903
0.7596783304
0.7826486453
0.7679381789
0.7262943824
0.656282278
0.5849213311
0.5014418621
5800.825601
8137.431059
3858.050905
4772.950111
3620.105808
2737.643373
2071.668869
1814.140902
743.028499
297.6299905
340.5227552
329.8055974
266.971586
174.9851206
99.87078437
0.4679153196
0.5485032412
0.637031451
0.7181138026
0.7679046986
0.7829229573
0.7490848357
0.6661782685
0.5653780818
0.4793987664
0.424205957
0.3921366255
0.393086095
0.4239176465
0.4842279794
0.5667144605
0.6639771166
0.7478901463
0.7906353919
0.780605989
0.7108242077
0.6317078732
0.546859815
0.4602773059
18819.61402
11349.33118
4923.239214
5873.137616
2480.656016
2512.89623
2227.160303
802.2873208
348.6057602
363.2558746
349.444775
235.6182416
145.0926078
81.68269113
0.5004347156
0.5933391562
0.6878158502
0.7680107338
0.798963668
0.7609914417
0.6632059104
0.5391509973
0.4201353929
0.3349472043
0.2833054268
0.2585522986
0.2590049785
0.2833563288
0.336535198
0.4213048513
0.5374521489
0.6641142566
0.7626975795
0.7927751307
0.7502684486
0.6759313874
0.5909843866
0.4972693715
14830.84832
6373.316353
4940.328893
3733.337878
2512.31283
2574.386614
1886.875694
485.2327425
526.8615483
312.2586337
298.6356485
269.9745208
124.6892298
0.4673728486
0.5416230327
0.6291855684
0.7158304362
0.7954928122
0.7831682272
0.7029633971
0.5677606752
0.4193817947
0.3078634263
0.2346351258
0.1910873049
0.1720123913
0.172316919
0.1914026687
0.2338742641
0.3096148067