/*--------------------------------*- C++ -*----------------------------------*\
| =========                 |                                                 |
| \\      /  F ield         | OpenFOAM: The Open Source CFD Toolbox           |
|  \\    /   O peration     | Version:  v1706                                 |
|   \\  /    A nd           | Web:      www.OpenFOAM.com                      |
|    \\/     M anipulation  |                                                 |
\*---------------------------------------------------------------------------*/
FoamFile
{
    version     2.0;
    format      ascii;
    class       volScalarField;
    location    "3.996";
    object      mfpToDx_N2;
}
// * * * * * * * * * * * * * * * * * * * * * * * * * * * * * * * * * * * * * //

dimensions      [0 0 0 0 0 0 0];


internalField   nonuniform List<scalar> 
50792
(
12299.21945
11682.02153
5562.76876
4991.037033
4187.24214
2775.85241
2243.300966
2594.127729
2198.412941
2144.801666
1954.12421
1918.038324
1717.743291
1844.069173
1623.978953
1409.698623
1365.796062
1253.955386
1312.827961
1252.263109
1171.724212
1150.80261
1049.626572
1033.522562
1044.889557
854.5369826
954.6253167
1002.228784
1001.97011
1001.270502
953.0461835
916.6946012
815.0725206
930.4031349
935.0334016
1010.673058
1013.706538
1055.61894
987.2756156
991.3469005
959.337641
966.4059848
14663.86417
7336.842839
4708.233851
6572.979597
4247.364943
3980.557522
4007.791272
3573.195269
3111.418356
2737.951338
2426.768604
2121.382504
1953.023978
1773.833419
1566.113709
1652.047249
1612.135894
1591.789023
1570.357232
1544.69533
1510.727426
1391.548969
1358.155283
1320.109134
1212.5036
1261.783564
1290.78553
1262.360054
1205.064943
1263.936826
1249.191238
1333.70063
1340.168783
1392.222884
1367.993145
1226.590274
1299.107984
1161.960527
1239.477083
1230.926399
1265.494462
1137.303416
14371.7181
5446.022179
6357.985451
4547.440722
3757.295889
3092.574331
2651.092448
2214.594225
2002.104471
1946.86471
1809.178983
1634.773711
1687.811352
1781.520053
1775.575347
1552.599098
1552.175854
1467.514411
1335.23885
1322.542088
1417.342186
1403.543018
1271.609366
1323.416838
1356.870188
1288.069345
1394.694935
1338.030999
1323.016559
1222.628136
1292.077585
1272.284956
1261.593794
1163.519491
1186.896501
1189.409031
1156.40194
1170.768074
1124.241877
1185.685096
1264.752403
1176.00735
16794.48848
9774.010554
7816.077655
5286.696307
4224.829614
2961.168854
3270.337492
2817.862699
2584.490627
2259.302301
1863.66883
1882.726541
1512.803278
1798.546161
1698.582225
1401.707363
1584.827196
1498.657494
1676.257255
1245.208999
1236.322626
1285.923378
1393.066672
1137.181664
1024.238111
1212.050381
1384.586156
1466.678419
1222.281576
1135.153144
1486.789894
1385.535793
1394.707808
1323.673742
1227.045148
1317.429409
1218.870892
1098.762839
995.6322349
1094.535704
1067.963829
1010.635383
16375.94761
6777.72112
5309.381463
5957.886868
4268.992688
3587.619174
2944.604021
2778.521717
2246.857947
2106.374738
2087.694584
1552.725041
1921.336407
1719.935722
1563.331789
1524.953599
1486.220632
1452.541237
1295.536564
1293.940027
1266.929132
972.6442581
1069.54639
1209.436543
1019.407655
1231.058856
1306.334687
1322.024126
1326.764529
1250.539873
1239.018996
1501.48224
1445.159216
1455.514328
1385.966251
1184.460807
1243.849022
1214.375917
1121.623238
1244.88431
1292.738684
1347.144106
4187.081813
13341.10905
6114.18862
6187.396637
4796.033225
4152.638535
3899.297001
3295.980262
2756.520949
2501.740853
2099.317186
1870.668746
1962.794134
1760.666726
1745.420348
1659.344762
1556.52558
1330.820092
1273.297134
1230.64557
1158.627616
1096.022166
955.8964382
1033.305489
1221.967333
1204.972313
1137.352576
1088.63278
1087.42892
1371.22944
1176.134435
1458.395563
1299.538645
1337.321576
1345.218535
1266.204697
1401.334406
1250.406734
1319.540647
1211.808139
1243.146804
1173.572934
9630.872161
5829.52262
6610.484388
2650.832919
2203.512182
2339.252948
2682.519851
2446.380457
2648.554797
2316.542032
2242.402749
2120.547817
1869.634571
1864.747011
1802.8469
1649.3622
1537.262536
1624.048721
1487.721844
1300.368792
1279.435441
1048.199641
1071.075284
1183.139512
1049.552428
1068.498915
1268.718196
1240.807604
1309.189129
1181.079216
1070.141626
1062.658797
1183.301848
1206.874274
1150.664389
1231.939329
1252.352074
1095.837669
1130.283868
1061.199574
1148.059292
1007.917734
7321.737721
14129.93716
4432.935193
3763.394622
2416.700429
3993.87498
3472.556981
3272.225675
2701.715104
2435.033899
2308.983674
2030.413204
1678.871585
1723.657844
1586.820384
1459.129928
1256.058865
1351.339629
1438.511986
1426.051846
1519.430976
1396.700336
1350.589624
1389.779154
1257.707024
1238.342304
1123.878323
1129.352014
1155.446873
1137.589804
1078.382666
1173.065698
1111.78841
1140.813944
1140.926342
1141.882817
1081.388592
1003.846601
1089.536668
1192.535068
1173.631096
1130.917953
5325.451976
10629.47575
6303.7746
4705.202341
3415.416765
3058.24656
2871.059046
2470.148507
2236.364555
2113.109012
1968.479392
1844.550266
1702.097455
1704.118933
1664.109188
1516.726706
1507.710446
1624.803149
1543.977592
1433.919107
1522.886204
1357.62796
1647.6653
1647.67844
1354.055087
1165.158258
1386.737009
1317.797528
1428.299997
1328.860162
1402.839902
1324.118092
1223.251799
1280.422295
1165.986236
1226.307446
1021.253297
995.061875
1131.298742
1013.940823
1129.532566
1055.817207
4254.945446
6694.114103
8101.559291
6033.362429
3327.774
3328.743188
3012.853853
2552.842614
2209.520877
2087.924821
1953.484892
1756.72592
1854.818681
1753.330404
1718.104166
1586.701213
1674.800814
1463.094003
1226.165974
1283.432475
1119.087198
1343.977083
1201.992807
1298.203249
1238.130278
1230.378224
1203.98896
1153.562912
1150.72752
1153.073285
1181.831404
1147.761716
1237.375827
1209.452559
1226.948549
1156.634456
1057.582474
1064.903488
1184.990756
1052.70049
1133.000869
1200.481812
4732.869175
5113.087802
3229.847572
4539.471955
2955.924039
2582.829488
2277.247656
2400.64106
2176.859614
2057.345138
1900.736199
1924.226634
1990.389837
1663.903195
1780.672135
1630.688245
1612.627879
1542.714012
1463.537263
1419.976504
1461.649901
1195.782461
1261.712014
1370.750412
1363.346902
1317.714999
1300.351026
1214.529973
1255.44938
1210.619632
1214.440445
1252.862428
1108.485752
1155.271217
1158.406462
1150.722343
1022.475343
1043.133377
1029.554557
1071.97526
1062.215041
911.3451083
5855.17447
12388.41124
7515.64312
5169.983758
4003.70848
2782.999818
2049.252354
2386.452744
2003.316622
2163.250863
1992.863155
1607.436218
1682.869378
1794.972115
1587.603846
1594.523748
1503.585158
1456.495904
1246.796885
1256.543212
1364.297674
1313.735212
1351.936202
1366.422054
1401.066485
1357.379032
1305.074657
1442.443564
1209.685567
1410.640609
1192.69046
1309.064648
1296.071044
1608.493161
1674.028125
1569.018949
1556.479073
1412.294715
1354.030149
1320.068704
1299.814834
1212.138445
5831.254942
5792.451201
3620.276587
3945.24512
3804.0931
2973.43784
2582.130279
2496.08244
2205.627366
2066.895812
1730.049688
1586.448555
1666.115518
1652.620619
1625.301115
1555.017347
1591.488282
1560.268122
1452.539181
1251.880763
1442.013083
1292.649297
1297.738568
1338.289779
1268.108487
1351.71532
1351.845676
1150.286308
1025.836165
1135.922043
1336.593893
1320.075268
1232.885275
1220.019174
1237.697454
1191.005437
1237.568654
1388.508091
1371.135947
1343.276989
1337.995097
1269.310553
6099.558965
10238.02485
7265.958075
5831.091093
4092.647826
3646.365315
4006.201311
2605.561884
2803.180557
2297.392381
2349.611319
2050.792137
2233.884555
1732.235318
1761.010125
1615.836734
1604.778094
1559.330859
1622.263914
1627.882962
1590.442342
1402.263005
1336.129054
1113.31339
1108.19759
1201.198509
1110.042794
1048.528589
1135.195121
1469.165465
1392.489796
1243.52437
1321.904561
1302.933522
1275.619733
1075.598802
1184.327097
1390.946817
1288.385646
1249.731276
1199.2828
1236.995957
3330.360778
16302.17325
8584.94881
5802.191166
4903.479726
3886.441666
3090.569682
2842.350273
2387.659265
2130.148254
2229.387344
2076.757981
2087.220701
1960.677521
1642.942203
1608.065052
1570.009787
1502.973312
1392.857817
1407.047037
1537.811148
1477.61429
1373.958391
1287.726902
1331.033042
1274.276028
1449.563973
1330.393671
1183.550516
1009.105031
1081.261488
1223.1958
1351.530267
1349.106098
1205.353287
1263.206427
1203.251117
1182.14638
1250.961049
1459.978557
1285.951699
1292.991276
4524.752876
7540.017231
4760.943387
5471.853532
4182.795342
4111.109389
3705.120386
2783.519976
2648.402687
2298.949527
2153.537961
2177.196153
2002.340735
1790.536771
1850.781085
1610.771846
1269.559788
1409.989116
1449.786204
1291.986537
1290.386713
1275.527793
1465.304109
1425.825979
1281.636723
1247.742271
1075.319453
1055.054848
1229.141613
1160.864795
1261.525111
1374.280653
1307.600284
1533.381885
1144.853573
1453.907407
1286.886397
1437.992585
1514.660663
1311.56049
1315.890573
1257.520274
7829.121145
5506.689126
3911.114067
4929.450574
4633.361162
1934.154892
3187.030639
2690.189417
2796.824842
2401.919155
2218.570444
2201.463449
1768.760884
2017.053918
1850.219572
1868.539733
1842.325999
1623.52729
1245.622028
1468.227568
1639.0757
1554.040926
1506.306248
1389.105027
1390.775874
1523.070558
1214.269594
1355.527675
1219.294287
1264.075911
1281.456352
1269.764627
1154.021753
1059.449377
945.8486834
1034.326872
964.6344183
1020.545997
1047.518196
1012.552615
1136.058512
1096.091349
3213.227002
12209.4466
7024.098509
3830.264326
5723.711819
2669.49771
3455.403603
3190.103026
2490.989847
2217.389168
2199.558809
2236.416976
2091.806033
1923.565209
1766.651977
1629.045699
1627.920562
1554.881451
1250.904718
1192.668034
1404.367049
1416.499816
1505.605119
1258.002123
1557.193352
1348.772871
1595.877738
1736.702825
1683.603779
1513.269784
1305.355532
1281.660924
1324.865852
1235.959956
1166.105917
1064.873933
1036.797991
1196.145087
1097.533623
1188.794366
1194.82007
1042.935428
5799.755218
7345.427866
8095.801655
2886.082922
4501.309751
3645.930605
3029.587128
2433.301028
2317.29669
2189.049511
1885.795985
1938.839464
1898.813447
1756.068911
1473.271436
1489.642446
1538.852082
1518.287001
1491.632096
1388.741549
1405.816088
1387.205121
1366.589516
1117.199437
1286.686454
1225.934722
1049.97341
1117.342964
1153.976266
1107.088486
1198.405139
1074.95247
1235.060334
1236.278313
1173.062193
1180.30106
1092.205748
1192.427988
1287.903132
1224.671094
1180.815396
1077.689951
2707.174878
13213.91418
8626.934137
5404.872423
3951.087839
3736.663763
3075.610166
2798.255462
2381.73642
2080.092296
1779.53882
1959.944416
1762.287632
1630.844547
1632.773184
1443.588932
1431.646312
1355.855041
1468.551687
1360.160634
1316.408758
1256.243904
1274.340326
1067.119097
1172.912716
1140.377923
1063.734247
1218.882094
1389.268385
1301.060328
1372.03842
1437.252528
1363.843243
1187.681551
1339.474592
1445.826182
1356.507567
1339.642308
1260.197002
1292.735193
1330.436104
1324.735011
2048.219821
5330.051589
6482.849798
4631.399565
3487.225079
2574.663806
2536.454504
2310.572648
2038.194059
1941.593281
1766.797403
1473.553888
1593.388382
1059.591607
1469.907455
1381.4001
1029.798079
1219.989553
1278.266817
1231.573889
1011.156479
1232.44062
1383.897698
1274.421578
1270.940558
1230.092397
1124.548573
1212.508383
1209.724077
1449.284788
1404.944371
1400.55935
1309.252322
1378.236676
1441.907859
1318.038458
1396.59231
1327.882464
1469.357744
1604.736197
1583.055124
1510.638592
2917.9782
7019.055149
7942.543492
5654.807666
4385.37134
3884.136511
3136.17749
2754.12065
2421.708526
2193.01389
1999.17071
1737.520682
1583.215763
1489.015086
1157.650852
1325.132386
1314.51102
1216.344156
1311.604802
1244.771938
1135.961671
1152.873031
1030.365379
1155.866678
1266.040595
1280.398853
1192.798992
1311.744433
1354.960092
1210.970674
1212.656126
1370.790571
1368.210842
1228.743471
1517.542021
1268.126305
1400.682974
1262.529017
1626.618789
1434.324962
1490.553689
1488.44097
10411.59477
10420.37622
8178.724405
3112.140372
5089.31589
4351.348733
3949.106095
3156.030982
2643.96638
2374.165744
2397.715666
2362.881742
2089.915324
1754.81043
1887.722807
1544.339078
1551.310141
1449.653626
1421.5243
1427.630498
1314.676091
1313.780372
1226.603478
1300.237523
1019.097837
1244.870203
1196.775256
1167.821774
1160.163721
1127.508067
1089.638462
970.2116621
1063.715384
1197.581919
1097.885224
1172.515761
1040.507157
1025.258809
1139.680644
1181.899273
1254.193313
1157.324061
4454.60248
7407.780925
4120.349947
3030.427195
3861.78986
3323.666975
2796.547647
2719.724111
2474.32638
2133.925329
1791.393551
1979.813559
1728.293382
1791.665311
1748.752453
1648.328027
1414.626056
1393.363504
1354.453951
1566.940696
1523.677584
1389.501638
1325.246946
1372.897822
1136.228183
1333.149629
1285.913293
1525.583263
1501.203532
1414.381283
1409.069011
1304.480051
1209.297906
1331.011638
1316.230604
1295.596231
1192.535987
1055.442533
1228.018201
1204.939902
1229.045061
1259.013336
3106.987076
8789.167053
4786.065672
6114.005569
3625.932853
3740.284303
3307.952012
2435.002526
2267.352642
2032.544634
1853.923398
1664.381154
1638.73155
1612.850886
1460.660423
1336.598533
1473.221732
1309.032656
1451.486669
1235.442316
1456.263169
1454.646282
1434.328372
1337.699902
1291.401487
1201.372838
1337.792677
1367.365604
1400.139376
1329.288327
1349.257883
1162.385482
1115.003993
1181.409032
1226.140327
1229.783001
1291.156021
1236.038496
1376.201442
1331.885324
1314.527407
1296.253891
4130.879035
9214.323912
7932.616051
2925.814805
4449.966979
3561.950533
3101.434126
2888.750098
2618.935683
2188.523284
2056.537197
1969.398759
1745.027761
1582.600787
1437.408299
1430.193677
1646.640303
1538.638213
1653.694215
1538.885578
1718.68357
1616.715031
1399.079024
1360.450317
1363.060295
1255.286902
1071.644417
1055.518656
1089.406692
1095.490511
1120.497094
1278.020636
1074.039873
1152.103702
1130.826462
1187.349385
1313.389274
1262.451704
1149.942552
1205.688904
1202.704106
1091.298369
17144.81301
17125.04994
5521.996127
4397.867486
5053.845706
3710.727742
2743.959495
2580.863303
2365.101293
2049.95608
2046.527421
1854.188818
1761.19156
1544.551623
1554.6736
1516.573617
1202.237108
1193.208702
1305.639266
1177.285048
1216.590347
1465.532812
1360.278487
1318.127601
1161.64756
1316.593725
1138.267258
1117.36277
1018.429373
1190.74143
1110.550663
1142.206624
1219.937111
1170.273405
1232.181722
1303.826169
1279.602137
1419.268284
1331.239187
1277.037098
1244.358207
1234.98263
5411.686366
10157.0539
8172.255941
4112.243246
4010.895135
2926.306226
3156.027539
3026.589978
2579.124083
2052.336426
1974.664643
1939.740906
1580.958412
1594.59264
1616.368096
1563.625801
1444.36684
1439.577778
1411.663214
1382.935084
1180.270762
1410.867641
1408.137603
1367.40093
1312.21231
1232.01695
1206.69037
1147.093896
1096.049391
1102.631926
1058.024969
1035.119247
1040.518955
1074.667086
988.8238164
1137.648261
1049.713011
1120.401457
1102.987713
1175.873762
1217.262216
1163.640688
5339.745633
10008.86976
4031.188366
4072.572104
3947.146166
3720.60807
3115.205215
2867.600004
2451.513894
2201.144864
2025.785703
1816.973308
1773.432209
1758.701283
1633.060429
1701.934392
1561.909168
1212.32166
1506.125315
1295.226025
1266.769044
1382.751021
1336.297582
1235.874494
1183.460759
1298.305743
1168.197013
1300.377994
1073.05517
1002.484427
1219.187023
1256.86844
1114.222602
1195.881017
1174.359804
1043.891002
1169.965917
1158.045318
1125.568579
1129.875587
1101.988376
1142.184956
9253.397011
12959.24446
6908.667427
4567.991722
3355.395812
3626.732533
2511.714357
2443.644076
2221.478399
1566.307807
1974.978377
1773.648015
1523.015735
1367.309578
1363.866651
1333.730303
1352.466242
1279.071242
1159.666789
1373.281095
1274.143271
1317.188036
1271.877691
932.4021053
1196.087139
1260.979373
1258.064818
1249.108967
1432.180108
1511.721937
1419.5945
1564.115912
1737.352237
1449.206486
1551.685667
1328.704988
1295.736263
1180.319749
1292.022252
1369.844024
1521.143126
1407.363185
12960.14304
12601.43108
8118.530181
3274.259344
2430.093583
3367.913643
2859.679661
2407.406034
2501.224289
2243.220199
2267.424675
2080.772879
1851.727176
1622.639719
1644.482448
1737.702202
1508.52651
1716.907417
1473.270764
1566.529949
1182.058027
1455.952308
1331.086651
1561.753545
1456.509017
1612.412922
1535.192009
1494.252433
1299.623391
1465.77758
1399.450278
1267.685189
1319.804269
1489.370698
1510.112087
1318.719678
1373.532461
1316.935857
1181.506077
1298.105356
1148.274628
1147.502944
6889.223514
10069.36994
4374.914072
3240.266523
2378.671823
3345.919338
2753.410828
2579.780691
2432.864176
2126.069765
2023.026904
1682.096271
1724.509782
1560.666277
1622.942352
1508.363339
1347.62493
1357.278901
1352.70149
1202.547996
1038.011732
1167.062121
1246.640317
1253.884098
1121.5776
1295.124485
1289.777209
1242.959601
1144.486319
1148.622061
1131.641936
1069.048216
1235.420963
1257.433849
1330.797366
1236.844959
1157.128748
1199.476629
1383.90823
1275.711775
1345.091034
1259.39755
8194.729672
8782.411897
3410.310009
4069.863584
4433.463887
1979.825795
1465.537088
1983.647549
1950.299292
1924.73748
1792.149339
1547.552028
1507.371902
1405.541533
1239.537663
1396.736684
1294.111064
1210.846204
1382.483354
1230.144246
1128.036334
1105.885076
1129.953063
974.4407536
1125.226552
1086.650617
1376.18505
1406.408068
1314.464567
1283.201608
1159.953229
1175.710203
1190.500472
1077.580372
1293.072824
1336.211365
1413.142292
1355.82435
1266.783732
1171.600399
1250.860445
1317.694094
26957.46637
10924.93282
4491.504926
5897.475265
4604.510717
3636.007414
2657.0185
2483.486899
2171.93061
1943.045435
1744.631435
1706.030146
1627.659482
1611.005461
1434.916132
1402.756599
1357.709249
1312.356915
1355.044451
1347.839292
1257.010942
1317.517101
1238.238552
1354.894395
1413.156684
1252.273202
1164.472582
1310.038369
1297.85741
1444.67391
1408.213077
1340.218695
1257.601316
1371.667736
1234.09799
1332.209228
1381.976863
1362.7626
1338.683057
1287.435516
1286.119481
1197.041926
10154.83881
6166.048768
3589.923696
4792.316952
3044.688094
3444.857239
2928.127219
2626.838059
2708.19929
2227.462161
2042.898841
2372.034307
2213.750039
2077.400691
1805.738764
1804.138114
1804.250904
1539.730897
1712.909056
1683.782595
1509.482085
1261.304696
1413.980793
1149.725606
1236.205092
1388.599914
1345.53923
1320.757694
1409.774753
1365.521695
1441.949387
1322.017275
1278.075052
1197.20042
1258.665643
1176.303586
1192.539142
1211.534707
1118.800909
1337.784993
1282.934217
1256.826764
5543.875732
5920.513612
3570.233839
4227.798333
3420.775007
2260.704505
2944.990049
2384.926333
2133.162952
2123.426317
1902.730257
1851.622619
1635.42629
1527.165207
1836.204624
1752.417756
1551.125715
1404.809957
1306.920373
1292.727925
1460.084784
1326.160539
1260.205003
1195.753845
1294.522327
1284.450877
1244.243518
1343.411257
1134.022871
1532.271206
1420.769827
1427.422961
1472.364694
1355.679574
1263.556297
1229.222086
1154.388285
1164.116783
1165.257985
1094.713223
1152.960534
1136.788278
4821.90087
5368.938837
3420.810649
2556.745605
3862.403216
3955.149035
2949.664907
2513.514347
2464.283546
1884.251138
1951.159561
1870.455467
1579.130152
1700.7749
1528.816699
1478.800428
1543.222311
1357.851734
1330.820993
1331.814446
1333.69359
1300.952168
1287.668979
1286.314858
1270.923409
1215.750284
1245.336547
1274.834718
1274.442297
1105.152547
1289.848504
1216.684992
1232.202405
1262.901627
1138.847135
1135.558911
1269.803805
1248.040928
1291.210758
1173.91073
1224.549726
1312.25497
6281.088305
5249.463442
3440.180972
4683.205287
4178.96582
3562.742346
3154.349028
2760.588916
2486.017035
2517.729229
2149.234175
2029.751812
2036.170943
1770.118544
1789.05582
1419.436199
1606.018923
1691.720884
1657.117923
1578.803698
1691.977405
1622.42249
1432.834687
1399.114456
1501.594688
1449.71994
1452.641817
1383.755927
1423.209637
1191.025337
1319.743202
1222.212841
1206.462947
1298.096457
1328.073247
1090.999551
1228.146373
1234.713209
1314.073853
1129.949249
1228.683713
1240.228008
4446.186465
11569.6818
7325.567109
4548.654554
3524.757941
3188.285324
2701.620032
2416.216091
2099.323803
1827.137173
1803.28067
1696.481623
1782.789089
1690.759661
1666.698021
1435.495633
1614.246601
1557.452514
1425.062993
1532.928514
1143.317
1305.658605
1531.433157
1555.120702
1283.3341
1374.331353
1402.385449
1418.94753
1412.745306
1390.489195
1220.92406
1262.543796
1294.467114
1217.826938
1364.297116
1490.956153
1505.633324
1465.759731
1383.306179
1328.073572
1258.129178
1183.599537
2445.304078
6088.138275
5677.670266
3919.643186
4063.395599
3841.939776
2802.375983
3071.324557
2661.568762
2448.330371
2123.095179
1608.743135
1764.234118
1726.116997
1648.588348
1398.936335
1596.978863
1549.857103
1390.80699
1279.867071
1492.694209
1586.540993
1510.468408
1443.007122
1509.454811
1329.04614
1376.614431
1541.407507
1457.519714
1409.230535
1316.783338
1323.769972
1125.618575
1305.339653
1375.001858
1423.300103
1552.662955
1581.644225
1507.453471
1477.330036
1411.974799
1259.607121
3728.389332
13032.71652
7770.575071
5418.551232
4346.648608
3072.361197
3150.91941
3042.125816
2360.56182
2361.823989
2101.950089
1999.938733
1808.013464
1782.295162
1654.714066
1453.734335
1360.089383
1329.790462
1305.568717
1073.921627
1346.406865
1319.040297
1321.669953
1273.527201
1228.993888
1221.614355
1059.046999
1141.805254
1201.375604
1205.038132
1182.341017
1107.506218
1197.423799
1166.038745
1217.76163
1176.539148
1331.431468
1437.68525
1269.406876
1329.030653
1090.124919
1099.846333
10484.94364
10855.36974
4462.53486
3532.363876
3293.404179
2599.137148
2916.490815
2312.807676
2224.350014
1844.663063
2129.77182
1798.842985
1697.425299
1544.53898
1510.075331
1454.013688
1237.025191
1202.653909
1083.776575
1122.721485
1064.170326
929.6077123
1026.954655
1125.470967
908.7668834
975.8247954
963.7644185
975.1442671
1005.962786
994.9575579
1008.74293
1018.220379
977.8219145
1012.486525
972.914536
902.7013619
836.8804246
768.9281614
829.9727825
799.2805713
848.116499
896.5532282
1626.21607
2516.330646
2440.895692
1856.573947
1745.700749
1703.694814
1401.102659
1609.28343
1262.190453
1614.745245
1341.240433
969.4372614
1246.530649
970.6433232
1074.227449
1055.767603
1093.960647
989.7150189
1054.849519
1110.319087
795.8314155
798.7560995
916.7426774
935.5070128
924.5641965
894.8823236
813.7390748
685.9836292
782.8039989
833.5958417
833.6041188
771.9498135
746.8847745
790.7610877
787.3867708
766.3622166
737.2947867
681.0325929
656.522747
676.7143164
608.3068287
670.1390234
1235.381431
1363.27373
1938.038937
1482.675091
1919.508576
1115.797429
1171.014912
691.6520589
1078.690175
1100.098292
997.6039356
743.5162632
670.1066418
854.2742781
870.0645654
839.4471622
819.0029947
690.7246692
930.7344008
718.751888
666.5692323
714.2109815
660.1538576
804.3268025
788.044719
705.3795687
651.3113563
696.5326387
620.2831912
746.4067409
864.7192344
821.5953708
822.1576505
692.6261609
684.53779
579.2327411
677.8698222
659.7953068
631.1335313
745.6238257
690.5950683
727.1214543
2044.0742
911.2161328
1142.515635
1588.568991
1391.635669
730.3450829
709.4669519
752.8646462
717.0707243
839.924365
998.8618874
651.7107371
443.7074448
594.6066653
794.7291856
743.6846976
476.606658
606.8087763
565.4824545
533.6501747
530.0605558
565.1355174
574.8273514
591.3597906
673.5860198
583.5705913
655.1734816
575.2262278
727.0774304
733.5081659
707.670716
675.6014088
602.8759795
595.5216143
636.0478554
715.2364165
634.9800731
691.7414857
632.9117815
594.7140858
727.8880767
776.9242965
2778.840164
1237.31678
1395.421306
786.8870198
1110.137557
810.6763182
611.9206882
805.786252
676.435597
803.2249009
532.4182064
556.6056767
431.0531086
399.4119807
579.4800542
477.4805572
394.13789
413.9668706
504.7996658
495.3926355
489.5721278
515.3490562
576.3752059
547.8985447
565.823829
619.5799793
688.7097931
666.5353274
582.2100255
634.3836843
802.0985148
766.8898257
750.2366199
805.5598339
781.4223223
760.5015181
843.6912117
766.9797696
702.2980542
692.5431134
865.3140537
990.5663869
1551.711508
1046.107637
1444.25244
1149.150141
864.4549751
790.698232
702.9628313
570.2760391
813.376113
811.3899064
733.2225291
524.4606574
370.5015805
344.5295358
374.1947344
331.6179185
371.0604667
362.0649742
379.4212663
366.0741434
498.5693814
455.2861758
465.0295622
397.8941903
623.6826852
849.0956414
792.5145648
693.1340517
691.4115008
644.4290223
872.260819
831.6016373
792.6318453
900.0545047
825.6932829
685.6074598
749.8360429
775.3941023
844.1244327
719.8143745
767.1293475
802.6843522
1762.751686
1221.540532
1156.484247
860.8809861
702.7543542
919.5777324
687.1467438
558.1202822
682.715778
508.0161282
473.6970618
430.0290727
462.3141606
294.1385866
269.3023849
290.0415733
239.7734885
272.3763883
368.5050889
363.2584572
417.1136399
504.6411111
516.8035192
394.3747013
529.6111939
746.0020001
1041.810374
938.2121571
760.9266465
1015.446135
1289.172759
910.374083
870.7901723
872.9146109
1000.454566
939.1160722
762.1973623
677.9620247
740.3815103
840.6740362
874.0931263
852.8908302
1772.404111
871.4257509
753.4073793
697.3108522
686.7073176
652.6188563
655.2192047
589.6183475
569.0120796
577.271365
459.7367249
302.0824544
268.1395953
232.6116012
180.9878177
180.5220901
84.4531767
5297.023871
1240.872433
1695.513916
1562.840055
1626.667781
1042.359767
1717.997773
1277.364812
1180.657723
1168.425955
1180.516566
1194.040474
1259.778385
1090.973444
995.5911429
979.627513
1095.11314
1137.830019
984.0532543
627.559095
507.8810041
557.3797986
530.5727031
539.4559591
416.9087765
438.6147831
342.6514709
320.1261685
246.243514
184.1734327
152.8162954
73.86102417
1923.60127
2366.089431
1662.969767
1939.464323
2138.802809
2108.844439
1549.234393
1301.576682
1185.725205
1412.719859
1224.095779
1083.35743
1104.735992
1059.147467
1099.63764
1460.611914
823.4745029
762.2096947
634.947084
513.184562
582.0971472
376.657743
255.2375979
395.3164449
246.0995368
159.5339347
201.7657369
86.13814983
0.5748412494
0.5966840106
0.6135089793
0.6127112259
0.618944949
0.6197383999
0.6088803516
0.5853498035
2280.01543
1454.974599
2744.993033
2274.965906
2765.112578
2479.753936
2233.262574
1433.501305
1870.46722
1583.589507
1565.618888
1472.11374
1302.639383
1197.053441
907.4375936
726.4802502
599.5191362
525.8628274
419.8950632
387.1236575
297.7914196
267.0554015
177.4909181
101.8154038
0.5885884483
0.634541862
0.6908241224
0.7054547968
0.7258358634
0.7281227867
0.7375142542
0.7304294067
0.7048694361
0.6779426361
0.6337163453
0.5890230192
4188.995492
3380.524334
4162.086865
4339.367688
3017.248542
2846.174005
2242.062051
1593.910149
1827.617756
1621.425288
1548.507954
745.460679
572.9374286
434.7040903
549.2972677
502.3614248
360.1388192
398.3378181
301.9251154
180.594632
98.12020507
0.5815737013
0.6347335649
0.6907997837
0.7324087107
0.7879525175
0.8226813908
0.8462146284
0.8553356134
0.8576601579
0.8345199467
0.8187708243
0.7903318769
0.745497932
0.6953521555
0.6321002579
0.5826874616
11829.9122
3941.880899
4872.394154
4389.617562
2637.452062
2762.777182
2602.983057
1340.747365
1698.449251
1456.684128
1106.589625
745.1537355
601.4308641
464.368663
499.5637315
518.4047204
337.2409225
216.349026
97.47981186
0.592417252
0.6632166974
0.7354147471
0.7930045393
0.8406765538
0.9043593953
0.9308117276
0.9524133699
0.9405223585
0.9437105452
0.9415904712
0.924998926
0.8859552872
0.8472787053
0.7809932122
0.7290503162
0.66640536
0.5942659103
14121.04654
3651.533208
3931.113013
5952.59393
4141.975928
3138.470825
2283.793439
1642.94878
1682.241565
865.4912522
609.3974146
476.6628507
361.5634489
374.1335293
257.516448
201.2488927
167.5004107
81.87345095
0.5875522037
0.6717457786
0.7428377182
0.8272786398
0.8929046262
0.9521622784
0.9638693974
0.9872368374
0.9899463181
0.9889332524
0.9793438646
0.9832858593
0.9837113458
0.9776647026
0.9560267138
0.8953637451
0.8241082175
0.7431115008
0.6647320001
0.5779858181
20690.86422
7666.585058
8368.353117
4728.137586
3243.834041
2618.808593
2347.803465
2104.449181
2075.436368
775.7393438
698.3201699
384.3299355
450.5386943
300.9715712
230.758602
176.0344335
108.9328275
0.5782306373
0.6603413133
0.7558174207
0.8327480097
0.9122057389
0.9732800035
0.9843411753
0.970413768
0.9689362517
0.938125599
0.9082411678
0.9085723851
0.9202285548
0.946875923
0.9895768081
0.9908005825
0.9672996941
0.9028210496
0.8181105728
0.7402651858
0.6544341671
0.5821967617
16191.73606
9446.499408
3421.674727
4080.197038
2309.944684
2005.977125
2642.232857
2253.596336
535.8810695
511.3340922
491.5449994
403.6834134
341.854626
255.4948014
176.9283458
79.59573767
0.6360394889
0.7302646817
0.8197947675
0.9204009419
0.9725226693
0.9749136046
0.948200751
0.8816883155
0.8029828759
0.7449573077
0.7136279756
0.7115741069
0.7413125053
0.7940246531
0.8816998539
0.9476096849
0.9781678769
0.9607922173
0.9039903831
0.8228361696
0.7303086943
0.6341257891
5800.825601
8586.518692
4467.359499
5505.768533
4581.896761
3370.29423
2393.872842
2128.502663
1148.196539
352.38431
425.6604605
407.3442668
318.6870693
202.2839861
119.1896568
0.5861030939
0.6836321243
0.7951464286
0.8963486956
0.9586943733
0.9765157312
0.9392564251
0.8329675891
0.7074671718
0.6033434027
0.5324723021
0.4909169964
0.4926708536
0.5302019977
0.6091703505
0.7139748672
0.8291931419
0.936391839
0.9864883261
0.9730820664
0.8856651272
0.7907419221
0.6887245427
0.5786471853
19281.68089
13768.88976
5447.809656
7555.608994
3995.927941
3034.701643
3243.493263
859.0548479
417.0411243
452.4919829
459.2799064
310.1673074
191.1011172
105.2291998
0.6304972964
0.7411648298
0.8562027476
0.9573744924
0.998645532
0.9512904108
0.8283517819
0.6771690672
0.5257698745
0.4193976041
0.3552697294
0.3240677225
0.3252060701
0.3563470915
0.4229477545
0.5316874973
0.675941971
0.8258851726
0.9515633675
0.9877550197
0.9341567783
0.8444429137
0.7394876059
0.6221308985
20399.36597
7261.29149
5906.718895
4568.869085
2951.824484
2422.014715
2434.18526
564.1121689
683.0092603
411.0955798
341.4601639
371.5378709
173.4087412
0.5876042421
0.681608417
0.7911293769
0.8933903472
0.9921220208
0.9751342533
0.8756937563
0.7114731353
0.5246972718
0.3854647064
0.2942903994
0.2392620354
0.215285341
0.2161015683
0.2400829966
0.2930958041
0.3903078121