/*--------------------------------*- C++ -*----------------------------------*\
| =========                 |                                                 |
| \\      /  F ield         | OpenFOAM: The Open Source CFD Toolbox           |
|  \\    /   O peration     | Version:  v1706                                 |
|   \\  /    A nd           | Web:      www.OpenFOAM.com                      |
|    \\/     M anipulation  |                                                 |
\*---------------------------------------------------------------------------*/
FoamFile
{
    version     2.0;
    format      ascii;
    class       volScalarField;
    location    "3.996";
    object      p_mixture;
}
// * * * * * * * * * * * * * * * * * * * * * * * * * * * * * * * * * * * * * //

dimensions      [1 -1 -2 0 0 0 0];


internalField   nonuniform List<scalar> 
50792
(
5.707430043e-05
0.0001041536655
0.000194706772
0.0001074806713
0.0001560783751
0.0002243793293
0.0002505331569
0.0001871153201
0.000239616439
0.0001560288612
0.0002779953692
0.0001648032703
0.000359677775
0.0002622210576
0.0002529523195
0.0003933950421
0.0001268935459
0.0001127092257
0.0001652996176
0.0001050113942
0.0002741628792
0.0002724927112
0.0001167312272
0.0001603870045
0.0002941706617
4.371351148e-05
0.0003322455993
0.0004206013259
0.0001924359088
0.000234199418
0.0003478360296
0.0001750705274
9.020121045e-05
0.0001829591297
0.0002292299988
0.0001841992192
0.0002951798572
0.0001837252967
0.0001819557273
0.0002522803728
0.0003112186846
0.0003156869261
4.479907644e-05
9.928828355e-07
1.335609072e-06
3.937367258e-05
0.0001251876623
0.0001227467112
0.0001026391627
0.000153784363
0.0001010580115
0.0001527262663
9.470479996e-05
0.0001271806922
0.0001134761324
0.0002022327643
0.0002573342667
0.0002289012718
0.0001267778852
0.0001756869801
0.000198943363
0.0001986083728
0.0001914168771
0.0002144317971
0.0002718336657
0.0002909297398
0.0003718306282
0.0002443979296
0.0002406267599
0.0003104196412
0.0003032833559
0.000344664337
0.0003679977949
0.0003585570392
0.000306371527
0.0002229147971
0.0002195157819
0.0003737160997
0.0002598695684
0.0004529889284
0.000390495902
0.0003694332502
0.0001290945231
8.892535238e-05
3.896161353e-05
6.248350268e-07
2.206626479e-05
4.06061987e-05
4.965025338e-05
9.420556467e-05
0.0002220444786
6.623868742e-05
6.728960321e-05
0.0001800780391
0.0001939832452
5.624780675e-05
0.0002573866287
0.000174953656
0.0002177782712
8.183450762e-05
0.0001735616492
0.0003201053445
0.0003433970111
0.0003030024986
0.0002855486137
0.0002096311762
0.0003240718997
0.0003574314967
0.000200350975
0.0003052738437
0.0002902592298
0.0001239579687
0.0003437639689
0.0003390418069
0.000269193104
0.0003261784208
0.0002470442862
0.0003418311956
0.0003697246557
0.0003113292849
0.0003334508896
0.0004262403574
0.0004318089788
0.0003101987305
0.0002949651473
0.0002480999422
3.423252549e-05
5.917948896e-05
4.194368451e-05
4.614532073e-05
8.050392967e-05
9.537528203e-06
6.507769904e-05
4.022715594e-05
9.643817022e-05
0.0001722632527
0.0002826458771
0.0002928306197
0.0003013847556
0.0001316053948
0.0002262582729
0.0003314517966
0.0003491134927
0.0002972466414
0.0002302233085
0.0004693217013
0.000459744944
0.0004214314551
0.0002314872358
0.0004024055579
0.000471850819
0.0003205307641
0.0003157493175
0.0003047404502
0.000399398526
0.000456180803
0.0003623199184
0.0003964177581
0.0003197013955
0.0002562067004
0.0003215531328
0.00025280804
0.0002487881011
0.0002930138715
0.0004492838516
0.0002799391277
0.0002208710385
0.0001954645885
4.400529175e-05
6.831064698e-05
2.998070908e-05
5.995038352e-05
2.993263691e-05
4.753646971e-05
0.0002234511887
8.689935823e-05
0.0001412462999
0.0001134125955
0.0001397217608
3.585719981e-05
0.0001700416535
0.0001199618395
0.0002084611879
0.0002215020547
0.0002776063171
0.0003038640654
0.0003529478159
0.0003730809253
0.0003101669579
0.0005307889952
0.0004847892144
0.0003582403473
0.0004573025545
0.0004520763596
0.000364637755
0.0002716545409
0.0003171063083
0.0004571260579
0.0004488091394
0.0002556637456
0.0003770911381
0.0002398407337
0.0002854122553
0.0003065337505
0.0002802923633
0.00039968247
0.0004433600906
0.0002713863285
0.0003419675645
0.0002232696485
5.38627827e-05
1.492643747e-05
9.543379027e-05
4.879121363e-05
8.140224367e-05
4.960428939e-05
5.538246762e-05
0.0001344223251
0.0001428064175
6.292869347e-05
7.524205794e-05
0.0002592985685
0.0001340556695
0.0001991849038
0.0001333131629
0.0001805993328
0.0001560114115
0.0001071500131
0.0003167719691
0.0003159407682
0.0002966208305
0.0004300636072
0.0004732088943
0.0004438226575
0.0002221234374
0.0002837004242
0.00026664495
0.0003958535905
0.0004438592615
0.0002176046691
0.0004576054106
0.0002593486244
0.0003750094159
0.0003074221368
0.0002895876069
0.0004013588504
0.0002512427283
0.0002823761925
0.0002556640047
0.000299783344
0.0003036565307
0.0001191600525
3.311949516e-05
5.174857814e-07
2.25043886e-05
1.288588229e-06
1.587498226e-06
1.134289684e-05
0.0001737514755
0.0001506007461
0.0001219953094
8.833268699e-05
0.0001201063176
0.0001458552529
0.0002119501411
0.0001194273994
8.15957852e-05
6.646118268e-05
0.0002306806829
0.0001790921957
0.0002080113922
0.0003548178811
0.0003211289027
0.0004815764116
0.0004501438247
0.0002904226699
0.0004231275946
0.0004423551625
0.0003207858789
0.0003774486098
0.0002194318804
0.0002635713957
0.0004360569976
0.0003691618315
0.000324795847
0.0002466164457
0.0003242862825
0.0001782954938
0.0002100805676
0.0003415898548
0.0003053381961
0.0004356627231
0.0003656634168
7.836752664e-05
4.448249978e-05
2.486437307e-05
1.008993987e-06
2.441969523e-06
1.962020724e-06
5.106699627e-05
0.0001594104241
0.0001254625038
7.884506669e-05
0.0001852591471
0.0001305417489
6.951701958e-05
5.822884428e-05
0.0001431901634
0.0001177738253
0.0002601671035
0.0003605596566
0.0002890711885
0.0002566429427
0.0003216751369
0.000191009703
0.0002961329132
0.000340210623
0.0002337431126
0.0003765084778
0.0004264167383
0.000415128313
0.0002833868883
0.0003308120471
0.0003416019482
0.0003841607294
0.0003140378804
0.0002379333816
0.0002871556122
0.0002903640438
0.0001927653568
0.0004498536611
0.0004777288317
0.0004075957127
0.0002807432266
0.000274004435
0.0002191811091
4.265478327e-05
6.433631971e-05
0.0001149666588
8.614807893e-05
0.0001233323068
0.0001291961917
7.843282749e-05
0.0001540782937
0.000148816782
0.0001471851755
0.000105037267
0.000148025986
6.646204984e-05
0.0001982466713
0.0001796677289
0.0002182306244
0.0002196031969
0.0001534617729
0.0002637214578
0.0003038122877
0.0002029080036
0.0004413782545
0.0002024336672
0.0002670142978
0.00036310311
0.0004248658809
0.0002800278485
0.0003595631386
0.0003162369951
0.0004698948744
0.0005139346305
0.0004336470532
0.0004510036261
0.0002826652586
0.000395141307
0.0002611780069
0.0005102532637
0.0005340684965
0.0003943678547
0.0004626966469
0.0003552125642
9.643922189e-05
4.887323582e-05
5.537851885e-07
7.578384858e-05
2.166401675e-05
0.0001516050374
0.0001341576961
8.396781639e-05
0.0001256722737
0.0001792905144
0.000194479653
0.0001562336663
0.000307658647
0.0001895399305
0.0002076053046
0.0002376170362
0.0002827503651
0.0001906490574
0.0002566593074
0.0003913850166
0.0003959532926
0.0004647421588
0.0003014907695
0.0004063029626
0.000258133905
0.0002536692204
0.0001485660181
0.0003175547657
0.000320377884
0.0003727355091
0.0005050644449
0.0002851581798
0.0003654490654
0.0001612246487
0.0004118954722
0.0002206958053
0.0003096586238
0.0004388276528
0.0004836769249
0.0003791080326
0.0004304421398
0.0004044393463
0.0002164021011
6.132631907e-05
5.709491145e-07
4.893337295e-05
5.579270213e-05
0.0001343538906
0.0001449260092
2.801947796e-05
0.0001491130202
0.0002799428794
0.0002022532064
0.0002342155262
0.0001306345913
0.0002180313293
0.0001049840933
0.0002890022755
0.0002408001297
0.0002462954102
0.0002069146247
0.0001488347536
0.0002912770477
0.0002710675577
0.0004528741296
0.0003813286958
0.0003434205594
0.0002601352257
0.000235007206
0.0002569671701
0.0003785647292
0.0003251041433
0.000383163483
0.0003729221442
0.0002195291721
0.0003584285691
0.0003082561354
0.0004167128687
0.0002577292417
0.0003695181662
0.0003916619235
0.0004451369554
0.0002962952655
0.0003452588079
9.286140092e-05
5.166305128e-05
7.412732584e-05
5.59859016e-05
5.807323462e-05
6.101215932e-05
0.0001725996921
3.501522422e-05
0.0001570148445
0.000220792593
0.0001672292111
0.0001776252095
0.0003480196651
0.0002345801257
0.0002668952276
0.0001498799027
0.0001522116189
0.0002007916287
0.0002349125804
0.0004158984539
0.0003584969092
0.0002946075104
0.0003587883857
0.0003020070117
0.000223315943
0.000182058862
0.0002753437253
0.0003334822532
0.0003286387935
0.0004492729497
0.0003734058348
0.0004568875064
0.000372918779
0.0004263743983
0.0002557809638
0.0002468527221
0.0003051079033
0.0002927664647
0.0003960262752
0.0003547599966
0.0003459640273
0.000217510417
8.915176526e-05
5.291374493e-05
4.457725719e-05
1.076258294e-06
7.298948165e-06
4.736670313e-05
0.0001262181225
0.0001788666092
8.433041748e-05
0.0001584694786
0.0001555659138
4.178974682e-05
0.0002899560738
0.0002178281272
0.0001785900726
0.0001167930211
6.415222747e-05
0.0002045852793
0.0001862133575
0.0003290730208
0.0004138041125
0.0002879353449
0.0001703968551
0.0004089020116
0.000273804729
0.000307003504
0.0002143345741
0.0002741057091
0.000376284642
0.0004985442797
0.0004434839466
0.0003264174731
0.0003482055425
0.0004516830452
0.0004103602966
0.0003716252048
0.0003952375491
0.0004548483845
0.0003268804528
0.0002994704836
0.0003351965209
0.0003085605293
0.000107430393
5.313867109e-05
0.0001192554399
7.406331249e-05
7.894507617e-05
0.000142248231
0.0001741929924
0.0001592781267
0.0002754203327
0.0002280635536
0.0001852901251
0.0001487066175
0.0002621673106
7.931255946e-05
0.0002823733185
0.0002232654889
0.0001679412581
0.0001256789905
0.0002147739528
0.0002551093796
0.0001679712489
0.0002014869478
0.0003020616355
0.0003573010606
0.0004498042682
0.0004412772972
0.0004141265769
0.0004195161682
0.0004968980612
0.0004874344491
0.0003524140682
0.0003777295105
0.0004539349406
0.0004369570289
0.0002680647788
0.0002988750031
0.0005602453335
0.0004947799448
0.0003650319622
0.0004074476701
0.0003021452858
0.00031576983
0.0001474856591
7.348786418e-05
1.792381289e-05
6.280766481e-05
9.046261792e-05
7.905615001e-05
9.14445573e-05
0.0001938137567
0.0001999735808
0.0001614972116
0.000226194716
0.0001924033656
0.0001797943213
0.000106204864
0.0001921206794
0.0002068302719
0.000205130033
8.596216542e-05
0.0002395088555
0.0003425099427
0.0002755898627
0.0001446110092
0.0002761403243
0.0003441851822
0.0004265598935
0.000378503402
0.0004407894997
0.0002301800631
0.0003047316194
0.0003654455839
0.0004956725128
0.0004175767522
0.0003877322969
0.0004320317409
0.0003703933336
0.0005098977103
0.0003833904185
0.0004464064204
0.000487955107
0.000444107662
0.0002817807809
0.0002764783349
9.29249115e-05
4.454651993e-05
4.863278315e-07
9.010375587e-07
1.468710053e-05
0.0001062457655
0.0001103935506
9.469943174e-05
0.0001708349703
0.0001725642365
0.0002353342262
0.0001966208936
0.0001226158383
0.0001348089005
0.0002663094941
0.0001926995567
0.0002583685092
0.0003640331022
0.0003249118064
0.0002808455112
0.0004398707846
0.0002911830776
0.000371212139
0.0002535920062
0.0003707327756
0.0002782365839
0.0002893574315
0.0004697681888
0.0004056100163
0.0003054556962
0.0004160151351
0.0003045417881
0.0002555457895
0.0003485623283
0.0003237829763
0.0004320048397
0.0002382107354
0.0004052788722
0.0002596146769
0.0003132053099
0.0002711759742
0.0002719890719
0.0002213798407
5.425356859e-05
5.775406667e-07
9.104606188e-07
8.549102453e-06
6.422564812e-05
2.11068638e-06
7.791562907e-05
0.0001782693396
0.0001592243533
0.0002545437046
3.287555547e-05
0.0001085879703
0.0002602090958
0.0001716268798
0.0002738394801
0.0002333190906
0.0001916401511
0.000268831869
0.0004611926403
0.0003179078007
0.0002125145733
0.0002293310658
0.0002686581837
0.0003661295639
0.000368913944
0.0002382606686
0.0004423831121
0.0003280545141
0.0004150137299
0.0003567108511
0.0003283370289
0.0003149625758
0.0003919042062
0.0004193547154
0.0005279539634
0.0004868748697
0.0004661768753
0.000339681529
0.0003480497561
0.0004821054841
0.0003059257897
8.237573564e-05
5.248759003e-05
3.011676998e-05
6.012610283e-06
1.360750698e-06
5.010995115e-05
3.070343689e-05
8.671243567e-05
8.740790629e-05
0.0002127460769
0.0001553317176
0.0001234826074
0.0001524653917
0.0001705074423
0.0001436909103
0.0001808761709
0.0002995440806
0.0002178908544
0.0003047134528
0.0004829065435
0.0004324535817
0.0002701180285
0.0002994793927
0.0002772784559
0.0004341182936
0.0003380319608
0.0003817201761
0.0003579670371
0.0002320463384
0.0002799589376
0.000217767121
0.0003014663932
0.0002658834946
0.0002280056979
0.0002275377382
0.0003386771243
0.0004716955889
0.0005406052676
0.0003306656794
0.0003733407863
0.0003982565367
0.000288911037
4.788101787e-05
7.239355476e-05
3.671237285e-07
5.213518728e-05
1.416706163e-05
4.201525442e-05
0.000111777198
0.0002250270034
4.7403989e-05
0.0001064729081
0.0001644431014
0.0002365542051
0.0001456947243
0.0002500152697
0.0002971868075
0.0003430846867
0.0002185913603
0.0002819247061
0.0003473568405
0.0003570604204
0.0003812324847
0.0002805323516
0.0002928581529
0.0003163624192
0.0005238739489
0.0003676797993
0.000293746836
0.000487013358
0.0003866419587
0.000394865346
0.0004543551839
0.000424965782
0.0005017146918
0.0003198172243
0.0003196362332
0.0003823810902
0.0004109570183
0.0005226453437
0.0003734066615
0.0002597012968
0.0002594897096
0.0002425210785
6.852030159e-05
4.819432748e-05
1.174633424e-05
2.845374247e-05
7.564593049e-05
0.0001245771393
0.000118649832
0.0001378325222
6.974082692e-05
5.635203169e-05
0.0002888921038
0.0003350837526
0.0001611635115
0.0002112927421
0.0002491063646
0.0002088185639
0.0003098439768
0.0002880882748
0.0003953297707
0.0001451854145
0.000405079701
0.0003514119098
0.0003216974557
0.000417930496
0.000549713886
0.0004468759946
0.0004337074649
0.0004810537528
0.0004868888167
0.0003624474533
0.0003588383719
0.0003481607841
0.0002867076076
0.000309749901
0.000405590436
0.0002639380377
0.0001667283086
0.0003513202442
0.0003299353474
0.0003457725793
0.0002455123776
0.000256469538
0.000181972924
8.09887384e-05
7.692185411e-07
6.665617249e-05
6.848775355e-05
0.0001537066043
7.892294709e-05
8.621874301e-05
0.0001688891784
0.0002336169376
0.00023061766
0.0001291391766
0.0002961288083
0.0001653907559
0.0004745134004
0.0002534648736
0.0003032902448
0.0004944439305
0.0004319076056
0.0003762661724
0.0004453438706
0.0005575480874
0.0004558157139
0.0004328934838
0.0003960877297
0.0004261066121
0.0003325439132
0.0004468138403
0.000432122875
0.0004715551144
0.0003713485841
0.000413376095
0.0003421869679
0.0003778063299
0.0003057691596
0.0002955943905
0.0003507553192
0.0002496460873
0.0003822121108
0.0002341075724
0.0001567912082
0.0003103709329
0.0001873552485
5.688750238e-05
5.832013663e-07
0.0001048159152
5.857239558e-05
9.593810986e-05
0.0001401615681
0.0001518951921
8.586778091e-05
8.452976325e-05
0.0001159922252
0.0001417985879
0.0001843409397
0.0002556960274
0.0002692497184
0.0004351680645
0.00033065982
0.0003154318126
0.0004405403405
0.0002573827571
0.0003297161508
0.0003295981174
0.0003168273733
0.0004364752072
0.000507585241
0.0003226636199
0.0003989186157
0.0004167475944
0.0003576153701
0.0002770097218
0.000313215815
0.0004107000232
0.0004010612707
0.0004513972092
0.0004710734069
0.0003224073696
0.0004714927416
0.0003553781915
0.0004103846394
0.0002553528619
0.0003395099566
0.0002594959422
9.985712085e-05
3.660334217e-05
4.661147563e-06
5.123737104e-05
1.117900984e-06
0.0001127508082
0.0001017068401
8.008972186e-05
0.0001541480892
7.705055876e-05
0.0001488211517
0.0002121071699
0.000101785974
0.0001317311252
0.000281301426
0.0001855247093
0.0003177867509
0.0003212451947
0.0004018740612
0.000333417452
0.0001589538472
0.0001841672351
0.0002575166587
0.0004101853543
0.0003146577064
0.000512703059
0.000258512519
0.0003514972359
0.0003184830837
0.000186767128
0.0003285693804
0.0004189027073
0.0005893063446
0.0005620996926
0.0004059290607
0.0005221214663
0.000338208989
0.0004976033772
0.0004777716769
0.0003802945954
0.0002792585552
0.0002161302776
0.000110755704
7.258351692e-05
8.990616936e-05
3.099832085e-05
8.618644915e-05
7.912320403e-05
2.742336151e-05
3.950402983e-05
6.315795849e-05
0.0001730735072
0.0001997084717
0.0002297203679
0.0002207077703
0.0002697023183
0.0002610756547
0.0002943142642
0.0002186151874
0.0002957577823
0.0004384938187
0.0003569410736
0.0001691752453
0.0001725156415
0.0002121987405
0.0003037574401
0.000216538504
0.0004861713573
0.0004088853375
0.0004350896824
0.0002840026741
0.0002529144988
0.0001708124203
0.0002583816195
0.0004386006009
0.000453817759
0.0004458120926
0.0003028089959
0.0002689307263
0.0003295497066
0.0004631985707
0.0003868485537
0.000399336607
0.0002688735264
0.0001344072307
2.899266971e-05
4.412442456e-05
5.692017644e-05
3.449709998e-05
7.264060532e-06
2.332089261e-05
8.31337903e-05
6.372470569e-05
0.0001161704801
0.0001866905863
0.0002364833436
0.0001883939738
0.0002753039403
0.0002316983046
0.000316719656
0.0003676060529
0.000310037906
0.0003236013294
0.0002225044359
0.0003721862666
0.0001600365382
0.0002579380516
0.0002816915294
0.0003029674007
0.0003405101885
0.0004152173022
0.0003469987519
0.0003384389013
0.0003747888531
0.0002850645327
0.0003798809618
0.0004118712353
0.0003564780502
0.0004471645729
0.0003848246837
0.0003519800233
0.0002491944495
0.0003564447974
0.0002308779895
0.0002181578064
0.0002767888866
0.0001323226703
2.586564696e-05
2.942704117e-05
3.44715037e-05
1.610992861e-06
5.045727784e-05
0.0001148283328
0.0001939865373
0.000125779105
0.000134226788
0.0001339215724
5.521305102e-05
0.00013505424
0.0002916037596
0.0003569908645
0.0003835721911
0.0003842827737
0.0003884964515
0.0003280484373
0.0001997908801
0.0002895403709
0.0002398594294
0.0001381302001
0.0003868328163
0.0003290028352
0.0003068360518
0.0003314185702
0.0004446831038
0.0005007332068
0.0003853594243
0.0003780876014
0.0004108250742
0.0002669519827
0.0004151476486
0.0003601700766
0.0004637118459
0.0003791545618
0.0001481152365
0.0002638298026
0.0003261340373
0.0003332870699
0.0002082294283
0.0003312769112
3.820387412e-05
2.071357952e-05
0.0001092291105
0.0001417727301
5.646425239e-05
8.322118404e-05
3.166150285e-05
4.906397716e-05
5.538585269e-05
4.952115135e-05
0.0001505059015
0.0001894246209
0.0001832111584
0.000292912415
0.0002723722935
0.0002344297592
0.0003848336716
0.0003746630563
0.0003242726921
0.0004369629884
0.000395191054
0.0002233571108
0.0002468848765
0.0002599083678
0.0003945239791
0.0002946014563
0.0003924506118
0.0003477136673
0.0004588492349
0.0003298739721
0.0004505376491
0.0004209681927
0.0004071845565
0.0004312567035
0.0003737752154
0.0003908603782
0.0003373425174
0.0003896971939
0.0002563894554
0.0002296747706
0.0001215214753
0.000242014188
5.070609746e-05
6.258842541e-05
3.983824776e-05
0.0001376481743
0.0001360245634
0.0001823885495
0.0001015149336
7.74975771e-05
8.458747615e-05
4.367418632e-05
0.0001247992401
0.0002034887989
8.785768064e-05
0.0002847976949
0.0002786121004
0.0002975952747
0.0003681139844
0.0003679936464
0.000287502439
0.0003474660754
0.0004494403146
0.0003161504598
0.0003032425629
0.000184908213
0.0003095929976
0.000210860692
0.0004409525851
0.00046090518
0.0005098800963
0.0004435123286
0.0003323224928
0.0003626159258
0.0003136648911
0.0004843846529
0.0004647790709
0.0003988162088
0.0004599071022
0.0002645225989
0.0004084905849
0.0003093780038
0.0002162189319
0.0001338781366
5.907530621e-05
5.761462029e-05
0.0001419846281
0.0001254587144
1.985749548e-05
3.069311961e-05
0.0001186760672
0.000122487782
0.0001806361174
0.0001394635589
0.0001437639391
0.0002077959663
0.0002824776006
0.000259286205
0.0002877131319
0.0002269619573
0.0002790922136
0.0004170080918
0.0003016167315
0.000421279304
0.0003585015898
0.0002428862946
0.0002645572752
0.0004068181243
0.0004351113993
0.0003750933341
0.0004569015777
0.0003696326183
0.000453167718
0.000416897853
0.0003115931974
0.0003739650717
0.0003587627827
0.0002168751344
0.0002078200065
0.0004046624809
0.0003104185066
0.0003006818632
0.0003308075826
0.0003687877512
0.0002935526697
0.0002667617603
6.376039719e-05
7.445329157e-05
0.0001148773848
0.0001072301672
1.673938407e-05
6.822500369e-05
0.0001125423815
0.0001797827993
0.0001890246484
3.913085118e-05
0.0001396416124
0.000161354475
0.000262442406
0.0001779229908
0.0002639074437
0.0001177466459
0.0002707234066
0.0002418160346
0.000455711879
0.0002731574452
0.0003531225446
0.0003262437455
0.0003126725511
0.0005851154403
0.0004404207071
0.0004716740716
0.0003513062658
0.0003034634302
0.0002351624153
0.0002144929378
0.0002785757953
0.0002604393058
0.0002450221823
0.0003372685987
0.0003001430467
0.0003300027305
0.0003871802199
0.0004248384655
0.0004125703322
0.0004241131398
0.0002479594676
0.0001965925629
4.735866643e-05
6.572625709e-05
3.855946031e-05
1.518305773e-06
2.217422899e-06
6.174414625e-05
0.0002001427231
0.0001089831776
0.000244429986
0.0001739224157
8.543487e-05
0.0001245152775
9.550912806e-05
0.0002820662558
0.0002296916431
0.0002300607982
0.0003170695328
0.000133806867
0.0003280135625
0.0002661196818
0.0004318557273
0.00032034668
0.0003554891279
0.0002673791739
0.0004523542774
0.0003006010942
0.0004140072273
0.0002985179167
0.0003640468281
0.0002763099658
0.0004439978774
0.000344319006
0.0003092903361
0.0003461912608
0.0003596345886
0.0003850445108
0.0003125372748
0.0003464518541
0.0005107645673
0.0003380005092
0.0003608986337
0.0001393502209
6.589700853e-05
9.944384366e-05
6.682816078e-06
1.998590573e-06
2.539785237e-06
8.987718061e-05
9.687439913e-05
0.0001431350608
0.000101750583
0.0001007039561
0.00016958825
0.0001260329183
8.074028518e-05
4.101552143e-05
0.0002313158891
0.0003132202112
0.0001986943916
0.0002073289387
0.0002100038853
0.0003303973945
0.0004996114723
0.0004097509942
0.0004370285907
0.0004831197217
0.0004569501777
0.0004017918426
0.0002686067756
0.0003396642674
0.0003986547751
0.0002786320968
0.0003700483416
0.0004420013121
0.0003352752895
0.0004016158441
0.0002454720146
0.0003612509661
0.000360369579
0.0003850598607
0.0003042509648
0.0004006339524
0.0002468436018
0.0002084231541
6.889520957e-05
6.51356032e-05
6.987911333e-05
8.381476216e-06
8.426975308e-05
5.348477676e-05
2.400336797e-06
2.033758103e-05
0.0002156324776
0.0002885536221
0.0001788738161
0.0001802251686
0.0001624795751
0.0001406066664
0.0003619984226
0.0001893749663
0.0002920058879
0.0003775378566
0.0002397817425
0.0003700432012
0.0004398943204
0.0004726870005
0.0005464448255
0.0005279203311
0.0003974929728
0.0004092392207
0.0002776516581
0.0002599662152
0.0003108134391
0.0003162065878
0.0003725985133
0.0004274716506
0.0003959068264
0.0004224726293
0.0002822637901
0.0003237896633
0.0003162225654
0.0004249872655
0.0003787940538
0.000393208622
0.0003158346082
0.0001505304592
4.722859723e-05
7.477622872e-06
6.386438649e-05
5.697072656e-05
5.121460885e-05
4.964484651e-05
0.0001546652632
0.0001519592255
0.000252017977
0.0001526760296
0.0001959318394
0.0001373730617
0.0001093510991
0.0002136383069
0.0003123874404
0.0002262494175
0.0002694210554
0.0003856339157
0.0001708416655
0.000309148829
0.000332960694
0.0003114788759
0.0004045878354
0.0003655005025
0.0002891236026
0.0003997056567
0.000414333607
0.0003494553904
0.0004542504766
0.0002901284504
0.0002767790949
0.0002980556907
0.0003934183215
0.0003150228542
0.0004341204084
0.0003244136837
0.0002651423405
0.0004430460111
0.0002941233113
0.0003535077347
0.0002665346328
0.0001432915534
3.6109901e-05
4.927449955e-07
6.908007544e-05
8.32154441e-05
0.0001881833582
0.0001201072771
0.000136738043
0.0002205105387
0.0001390890241
0.0002841349779
0.000263534243
0.000117477978
0.0001852677696
0.0002199003972
0.0002459105334
0.0002426262078
0.0002095090559
0.0003530702514
0.0002430464505
0.0001941082421
0.0001619385133
0.0003261226664
0.0002325459519
0.0004007086725
0.0003351597551
0.0003130064195
0.0003676788393
0.0003480864962
0.0002645748584
0.0003681661141
0.0002125112289
0.0003069224773
0.0003436878749
0.000376650657
0.0002848991298
0.0003086607016
0.0003368062025
0.00042781562
0.0004417599149
0.0002348810196
0.0002068062848
0.0002537612939
5.816685712e-05
5.298199502e-07
2.176285569e-05
4.231953519e-05
1.872372959e-05
7.611614965e-06
0.0001180162339
0.0001647013627
0.0001764176747
0.0002754108671
0.0003192105041
0.0003048349837
0.0002311193068
0.0002922102357
0.0002023825218
0.000222880325
0.0001051002131
0.0003390635085
0.0003258089883
0.0003549980159
0.000278473859
0.0003933859854
0.000330739226
0.0003164728743
0.000309896698
0.0003029117567
0.0003681955226
0.0002348242301
0.0004449364793
0.0003619714282
0.0003405171006
0.0003146547367
0.000240236895
0.0003197794406
0.0003629954347
0.0003389829895
0.0003848726473
0.0003954108121
0.0004382383287
0.0004234442681
0.0003756814403
0.0002125858849
4.731410096e-05
5.271056111e-07
8.233850365e-07
1.211784225e-06
1.520268999e-05
6.184477104e-05
0.0001349889941
0.0001310428016
0.0001532616585
0.0002618641681
0.0002914019133
0.000360332552
0.0003552686877
0.0002364766478
0.0001875710996
0.000218896482
0.0002031136232
0.000328546198
0.0003501569432
0.0002188461898
0.0001439155388
0.0002325892551
0.0002747875313
0.0003387161137
0.0003420452032
0.0002994729856
0.0003382932227
0.0003237160983
0.0003287352776
0.0004837599101
0.0002734531525
0.0003585676006
0.0003038809105
0.000266015597
0.0004877377309
0.0005280620804
0.0003248578817
0.0003798836755
0.0003443868684
0.000444705542
0.0003492254874
0.0001771023131
6.993396533e-05
7.030569304e-07
1.130577819e-06
8.619745153e-05
8.387854902e-05
8.683178869e-05
7.085551223e-05
0.0001519810344
0.0001932444657
0.000169344283
0.000225662977
0.0001613178637
0.000104887194
0.0002508301563
0.0001532662948
0.0003185109115
0.0002719960064
0.0001794078591
0.0002784419193
0.0002967330668
0.0001950862788
0.0003066247952
0.0003636265561
0.0004364329001
0.0002942789933
0.0003184172759
0.0004164555628
0.0003347941727
0.0002805506927
0.0004640106917
0.0002871457066
0.0004198892358
0.0003856929128
0.0004111785126
0.000370430922
0.000528199703
0.0003327644756
0.0002984963271
0.0002935275886
0.0003771607877
0.0002776413999
0.0002378391405
3.458967881e-05
3.899733217e-05
5.407845647e-05
0.0001135754377
0.0001566222623
0.0001419344793
0.0001511642524
0.0001283332578
0.0001539682476
0.0001442441246
0.0001629015886
0.0002346473708
0.0001068575571
0.0001351749482
0.000146563194
0.0003269285608
0.0001660178405
0.000230916649
0.0003463688503
0.0002614474044
0.0004819034388
0.0003677938401
0.0002407406459
0.0003069498182
0.0003935586246
0.0002789658822
0.0003900592388
0.0002794303607
0.0001335108499
0.0002895314354
0.0004371754708
0.0004676753629
0.0004452342541
0.0004618993149
0.0003771674596
0.0003786684481
0.0002271649635
0.0002078882315
0.000273525535
0.0002821286766
0.000218144678
0.0002470295932
4.848297265e-05
8.595365036e-05
0.0001137597342
0.0001684471808
0.0001479303229
0.0001338198165
0.0002748073212
0.0001177127418
0.0001519421569
9.603682643e-05
0.0001597997774
0.0003196532969
0.0002204886433
0.000189408783
0.0002676263622
0.0003352646607
0.0002340472267
0.0002642322097
0.000402723658
0.0003954676912
0.0003306207692
0.0001567005856
0.0001313740674
0.000262559912
0.0003541367434
0.0003445388618
0.0003225375644
0.0002377744025
0.0001662907203
0.0001948770303
0.0003371439338
0.0003666582037
0.0004834545263
0.0003492431458
0.0003345326462
0.0003605729651
0.0002217146193
0.000264681927
0.0002152768105
0.0002369400924
0.000124821961
0.0001895726895
5.048442913e-05
1.312388976e-05
6.170624986e-05
5.059127712e-05
6.941487811e-05
0.0001709325488
0.0001107677173
5.572399219e-05
4.076094276e-05
7.280769637e-05
0.0001375186774
0.0001337223359
0.0002338086763
0.0001141032618
0.0002502628376
0.0002535567797
0.000112935666
0.000310365403
0.0002908489563
0.0004060756786
0.0001949384623
0.0001508330033
0.0001753244275
0.0002534140657
0.000295878395
0.0003014605606
0.00047370489
0.0003853027045
0.0001737613566
0.0002006516571
0.000254610956
0.0003391260802
0.0002426221333
0.0002425911124
0.0002791037389
0.0003949608971
0.0003391405608
0.0002686520514
9.598448635e-05
0.0002694852615
7.650606417e-05
7.640204898e-05
3.984033412e-05
6.048567806e-05
0.0001209052934
0.0001779024125
0.0002107559787
0.0002047791618
0.0001609105401
0.0002127835947
7.769576989e-05
0.00024927021
0.0002414652107
0.0002484020852
0.0002467935489
0.0002529640466
0.0002082178105
0.0001688344393
8.984756521e-05
0.0001705904731
9.474042076e-05
0.0001956580632
0.000206759446
6.757338559e-05
0.0002225927272
0.0002625989362
0.0002041445193
0.0003140353044
0.0002098120395
0.000182827329
0.0001479176143
0.0001814309813
0.0001571551084
0.0002256627491
0.0002045910947
0.0002407786121
0.000195716693
0.0002423771731
0.0002218095152
0.0003277507257
0.0001536760335
0.0001173714851
0.0001277098831
0.0001759331621
6.315119905e-05
0.000146799996
0.0001892394076
0.000276358687
0.0003655381998
0.0003657305987
0.0004088234777
0.0004434945907
0.0005578753166
0.0005342162678
0.0005111860975
0.0006639532054
0.0006309916141
0.0005786808244
0.000569711395
0.0005403356295
0.00053568349
0.0005441295559
0.0004520304328
0.0004000011672
0.0006786696078
0.0005672504372
0.0004831893961
0.0004560881585
0.0003963005336
0.0004908684976
0.000676744367
0.0007650806185
0.0005261675556
0.0001917052923
0.0003470647564
0.0003481617476
0.0003473953634
0.0003167867596
0.0002942713167
0.0003967044971
0.0002985806732
0.0005324811504
0.00051901607
0.0005324697467
0.000706646827
0.0001763770492
9.426660731e-05
0.0002064751608
0.0002747291109
0.0003095233613
0.0003761726048
0.0004693829744
0.0004712551846
0.0005659897557
0.0005975909857
0.000644806756
0.0006160476126
0.0007255094906
0.0007797157916
0.0006446960991
0.0006417308469
0.0007075344607
0.0007627123713
0.000772910999
0.0006572880082
0.0008099447548
0.0007848641302
0.0007831308375
0.0007753361831
0.0006682138478
0.0006514139055
0.0008194836431
0.0008554556568