/*--------------------------------*- C++ -*----------------------------------*\
| =========                 |                                                 |
| \\      /  F ield         | OpenFOAM: The Open Source CFD Toolbox           |
|  \\    /   O peration     | Version:  v1706                                 |
|   \\  /    A nd           | Web:      www.OpenFOAM.com                      |
|    \\/     M anipulation  |                                                 |
\*---------------------------------------------------------------------------*/
FoamFile
{
    version     2.0;
    format      ascii;
    class       volScalarField;
    location    "3.996";
    object      p_N2;
}
// * * * * * * * * * * * * * * * * * * * * * * * * * * * * * * * * * * * * * //

dimensions      [1 -1 -2 0 0 0 0];


internalField   nonuniform List<scalar> 
50792
(
4.702590776e-05
5.098325817e-05
9.85626456e-05
8.801107803e-05
0.0001301167571
0.0001869623704
0.0002273107969
0.0001291785959
0.0001807181303
0.0001400930406
0.0001802067377
0.000100930167
0.0002583722198
0.0001815657329
0.0002305889867
0.0002792888159
9.099203326e-05
7.087774246e-05
0.0001535897809
9.732749392e-05
0.0002560948946
0.0002487130561
8.123253367e-05
0.0001284538294
0.0002666113661
3.407240617e-05
5.157701704e-05
0.0003286230069
0.0001396657606
0.0001567863446
0.0002612111453
0.0001370097244
7.869154801e-05
0.0001703446151
9.651655521e-05
0.0001680583002
0.0002720969264
0.0001476831142
0.0001660216897
0.0002320347025
0.000281213009
0.0002864591207
2.565790755e-05
7.997281102e-07
1.156141568e-06
3.772103489e-05
0.0001134717557
0.0001130924527
6.419915325e-05
7.362424457e-05
9.292029356e-05
8.183113577e-05
7.749054138e-05
5.602428344e-05
6.902246531e-05
0.0001741609077
0.0002290841571
0.0001639639779
0.0001174102949
0.0001266821678
0.0001752651169
0.0001270043309
0.0001032742922
6.693728107e-05
0.0001273898664
0.0002265130777
0.0003185586917
0.0002293302033
0.0001857442085
0.0002791034411
0.0002647896652
0.0002482633281
0.0002954594511
0.0001811447318
0.0002296333148
0.0001903038934
0.0001390255757
0.0002982540692
0.0001922330337
0.0003129029794
0.000265439883
0.0003058934286
8.878871234e-05
7.99886013e-05
3.655189638e-05
5.960818162e-07
2.152383316e-05
3.935445449e-05
4.838307632e-05
9.155784288e-05
8.939527238e-05
4.535911345e-05
6.566828718e-05
0.0001014981004
0.0001799107615
4.171451402e-05
0.0002218312708
0.0001509808715
0.0001826254384
7.301829166e-05
0.0001547722664
0.0002081823415
0.000276500841
0.0002622848162
0.0002294164349
0.0001231696665
0.0002703792212
0.0002789467894
0.0001770699532
0.0002754885274
0.0002435387484
5.808140362e-05
0.0002846098587
0.0003061442025
0.0002302185747
0.0001358471911
0.0001864118326
0.0002946316225
0.0002656105524
0.0002457619067
0.0002938339326
0.0003810919999
0.0003625496157
0.0002758410116
0.0001685712798
0.0001707838145
2.947148687e-05
5.48482509e-05
3.975643596e-05
4.429379718e-05
7.669688737e-05
9.143066244e-06
6.252650874e-05
3.928587684e-05
4.395548824e-05
0.0001532904736
0.0002135454986
0.0001651098667
0.0002613409667
0.0001103842481
0.0001886546237
0.0002955942101
0.0002000639474
0.0002541528755
0.0001553265613
0.0003230835506
0.0003379129063
0.0003102572234
0.0002072060221
0.0003408651747
0.0004096228782
0.0002891001386
0.0002480515901
0.0002121582416
0.0003354200688
0.0003906356247
0.0002575403336
0.0002816420967
0.0001662090131
0.0001982873467
0.0002545216219
0.0002232746155
0.0002146127937
0.0002648186888
0.0003467151882
0.0002005184787
0.0001867426155
0.0001802939166
3.036688006e-05
5.565721275e-05
7.53919239e-07
3.754543013e-05
2.841481243e-05
4.558690978e-05
0.0001528241472
6.30528048e-05
3.818395278e-05
0.000101038105
6.767348967e-05
1.638340539e-05
0.0001194692244
6.777052421e-05
0.0001903322107
0.0001865836603
0.0001957199096
0.0002708506997
0.0003046098762
0.0003055644225
0.0002837261685
0.0004176718575
0.0003686686752
0.0002713393944
0.0003990441536
0.0003354293147
0.0002860543705
0.0002378543441
0.0002330292003
0.0003185960545
0.0003409942538
0.0001243320698
0.0002554632046
0.0001892590549
0.0001882652325
0.0002804559472
0.0002381708575
0.000347664476
0.0003659276255
0.0002217937728
0.0002734677537
0.0001963623936
4.211588424e-05
1.450809873e-05
8.583936993e-05
4.682207695e-05
3.23797393e-05
4.746258899e-05
4.926380246e-05
4.860532818e-05
8.280916587e-05
5.403120746e-05
4.849968394e-05
0.0002002655144
0.0001247593802
0.0001543277949
0.0001000038543
0.0001191069267
0.0001373940173
0.0001000709671
0.0002764431986
0.0002565934026
0.0002698052692
0.0002987766059
0.0004126945194
0.0003506927821
0.000193876772
0.000237597676
0.0002131458492
0.0002936482809
0.0003246998944
0.0001710433166
0.0003851260807
0.0001737306418
0.0002385615843
0.0002130109018
0.0002060136138
0.0003477694692
0.0002321502174
0.0002360440301
0.0001957203184
0.0002002312193
0.0001597693064
9.323763821e-05
3.048460602e-05
4.995328559e-07
2.231609366e-05
1.214432151e-06
1.404774218e-06
4.706295455e-06
0.0001335228187
0.000142784942
9.531072786e-05
5.710913367e-05
0.0001022914095
0.0001294819878
0.0001560509272
0.0001078945836
6.584218956e-05
6.042897564e-05
0.0001983373011
0.0001553092527
0.0001556305523
0.0002674982117
0.0002063009654
0.0004235737863
0.0003889492001
0.000251913937
0.0003639026897
0.0003709444472
0.0001849634714
0.0002788731316
0.0001405793259
0.0001927562593
0.0003473618466
0.0003143039092
0.0002187948943
0.0002276449028
0.000295174716
0.0001673246539
0.0001613007996
0.0002928344898
0.000261450658
0.0003637885325
0.0002695616037
4.510748744e-05
3.748326455e-05
2.377118083e-05
6.53347017e-07
1.810797028e-06
1.332538525e-06
2.478240394e-05
0.0001353359541
9.655042529e-05
7.322749572e-05
0.0001359870846
9.382927853e-05
6.620716251e-05
5.209009274e-05
0.0001342841874
9.571789984e-05
0.0002173257202
0.0003180808901
0.0002575638668
0.00017872485
0.0002531934158
0.000107827358
0.0002088082483
0.0002752711506
0.0001820637857
0.0003198235695
0.0002565751317
0.0002949607182
0.0001776855937
0.0002765086104
0.0002730362197
0.0003102690999
0.0002516179922
0.0002012137026
0.0001628896865
0.0002340565636
0.0001583115009
0.0003833479788
0.0004173161667
0.00031325832
0.0002451489315
0.0001952092123
0.0001416265649
2.976041004e-05
5.454944167e-05
9.049387905e-05
8.150336781e-05
0.0001129175992
0.0001219330749
7.455465395e-05
0.0001023674639
0.0001373862232
9.103574509e-05
9.681674287e-05
0.0001256122542
6.35472434e-05
0.0001782812163
0.0001200524223
0.0001970724577
0.0002009046487
0.000142854462
0.0002140649362
0.0002366854987
0.0001810842261
0.0002925185749
0.0001459851412
0.0001429170085
0.0003055461978
0.0003739958309
0.0002295603815
0.0002855752667
0.0002249067557
0.000309338861
0.0001413897613
0.0002639702062
0.0003439843379
0.0002210451531
0.000328362503
9.532645791e-05
0.0003913383372
0.000363543873
0.0002830893495
0.0004042930838
0.0001854863645
7.037279401e-05
3.904996886e-05
5.083912546e-07
3.695502933e-05
2.120838504e-05
0.0001295847846
0.0001171650095
4.99565148e-05
0.0001154170113
0.0001667450615
0.0001544972629
0.0001262868277
0.0002527093461
0.0001554748471
0.0001672434502
0.000143342861
0.0002609558696
0.0001559657841
0.0002393349388
0.0003403231113
0.0003311436909
0.0003800024155
0.0001944460764
0.0003522569249
0.0001537189531
0.0002333146039
0.0001333378701
0.0002659281581
0.0002649250125
0.0002739291471
0.0002910622558
0.0002585186692
0.0002935605588
0.0001470071699
0.0002376999107
0.000180258407
0.0002706527462
0.0003902255765
0.0003909647644
0.0002508749254
0.0003688866703
0.0003028076791
0.0001866201361
5.168723829e-05
5.527532e-07
1.081462768e-06
5.508974162e-05
0.0001284386801
0.0001373034331
2.443428839e-05
0.0001278180461
0.0001964794261
0.0001833470297
0.0001802458649
0.0001246527335
0.0001277502101
5.363512476e-05
0.0001624194697
0.0002028801051
0.0001658797004
0.0001788271497
0.0001272074703
0.0002502693036
0.0002472189291
0.0003679651657
0.0002945494824
0.0002717260395
0.000244433128
0.0002133828209
0.0002259690881
0.0003056965732
0.0002160576488
0.0002585667153
0.0003068037917
0.0001731746499
0.0003001572241
0.0002385974185
0.0002830705136
0.0001876876007
0.0003367571833
0.0002960658402
0.0003206763364
0.0002449256787
0.0002774616758
7.615216992e-05
3.251909788e-05
4.23225092e-05
4.808701201e-05
5.58958463e-05
5.849507712e-05
0.0001551794983
7.845516755e-06
0.0001397690299
0.00019818176
0.0001533999567
0.0001616316285
0.0002690699335
0.0001926888865
0.0001305727323
9.245860241e-05
0.0001441502995
0.0001846148463
0.0001716239697
0.0003321606779
0.0002983135477
0.0002300940289
0.0003149062193
0.0002561423075
0.0001579554975
0.0001548679748
0.0001618528688
0.000257972636
0.0001924905846
0.0003663346402
0.000223174594
0.0003254088807
0.0002650389967
0.0003085147874
0.0001821778844
0.000184679613
0.0002178395231
0.0002085150934
0.0003090876089
0.0002830937243
0.0002499004836
0.0001826966579
5.523829138e-05
4.492269465e-05
4.786747528e-07
6.806091117e-07
6.739810145e-06
4.551280681e-05
0.000101161559
3.677935228e-05
7.913872754e-05
0.0001376545359
0.0001044931543
2.84176763e-05
0.0002642922815
0.0001950123677
0.0001632717518
4.886787868e-05
5.800019511e-05
0.0001836487701
0.0001419100714
0.0002122301791
0.0002808686792
0.0001941544961
6.823233246e-05
0.000276342986
0.0002178986187
0.0002409139848
0.0001891797273
0.0001937399467
0.0002951426411
0.0004122924172
0.0003556761214
0.0002420914701
0.0002499056609
0.0003107872222
0.0002986747804
0.0002704101647
0.00028584913
0.0003245846461
0.0002056865614
0.0002331602033
0.0002060364489
0.0002537565407
5.499421512e-05
3.692797486e-05
5.504288419e-05
6.561654101e-05
7.088785609e-05
0.0001228260021
0.0001504865555
8.147276951e-05
0.0001942459592
0.0001066052007
0.0001688571232
0.0001095407419
0.0001837410289
7.499555425e-05
0.0002268209275
0.0002009372925
7.172884939e-05
0.0001118163839
0.0001741967077
0.0001226753047
0.0001090906431
0.0001834754224
0.0002342371984
0.0001724961645
0.0003641076658
0.0003939961837
0.0003119634442
0.0003293810801
0.000404167772
0.000357297687
0.0002582041419
0.0002820964555
0.0003091530146
0.0002568844061
0.000230865652
0.0001581404649
0.0003848021728
0.0003084341728
0.0001886696269
0.0002238785697
0.0001813547462
0.0002380896542
0.0001208231618
3.513360741e-05
1.635150686e-05
5.430978582e-05
7.794161638e-05
7.128141381e-05
8.149388184e-05
0.0001521975143
8.524288688e-05
0.0001483397551
0.0001987043824
0.0001534246264
0.0001514328307
0.0001010074599
0.0001387894376
0.0001842962835
0.0001559054078
7.209125954e-05
0.000193972139
0.0002546699484
0.0002215088274
0.0001330960666
0.0002015235582
0.0002302047702
0.0002845518641
0.0002689842493
0.0002808054905
0.000139661506
0.0002224014363
0.0002594023323
0.0004035900994
0.0003572509935
0.0003111986877
0.0002040233462
0.0001984766455
0.0003226625379
0.0002988316944
0.0003294946395
0.0003668194078
0.0003254525777
0.0001398939641
0.0002119579629
7.550287155e-05
3.66258328e-05
3.786369701e-07
6.937386331e-07
1.411682307e-05
9.537707808e-05
9.607823789e-05
8.047638782e-05
0.0001503916356
0.0001524225579
0.0001953183563
0.0001623789004
0.0001002064581
0.0001262144933
0.0001932428569
0.0001424797317
0.0001587699948
0.0003246639323
0.000231619113
0.0002249395153
0.0003053226666
0.0002478567577
0.0002593422008
0.0001582781068
0.0002135725662
0.0002090102554
0.0002204478643
0.0003822108965
0.0003244013454
0.0002298444766
0.0003227972708
0.0002630141616
0.0002078165817
0.0002812085611
0.0001922423945
0.0003759553262
0.0001846655371
0.000311651789
0.0002269767033
0.0001979674623
0.000188519376
0.0001964421466
0.0001798586333
4.955444294e-05
5.139415079e-07
7.944086959e-07
8.362962926e-06
6.159515783e-05
1.677253401e-06
5.311366808e-05
0.0001568472206
0.0001233157399
0.0001597144311
2.537717419e-05
9.675832716e-05
0.0002203934773
0.0001035970985
0.0001152507892
0.0001482632249
8.007506173e-05
0.0001911019265
0.0003352313048
0.0002273978204
0.0001889687333
0.0001541393919
0.0002059393269
0.0002522044584
0.0002643934289
0.0001931272641
0.0003396307158
0.0002415210177
0.0002987226684
0.0002900631452
0.0002738196911
0.0002446420775
0.0002858280314
0.0003195387157
0.0004631142587
0.0003894688648
0.0004014533611
0.0002801520806
0.000241789422
0.0003354492428
0.0001892193393
5.671904921e-05
3.951008152e-05
2.84906104e-05
5.711858077e-06
9.628620769e-07
4.71571312e-05
2.444173974e-06
8.148386252e-05
7.663360547e-05
0.0001547735281
0.0001428370686
9.794697897e-05
0.0001226365433
0.0001074194397
0.000109028942
0.0001685471631
0.000201667428
0.0001601375491
0.0001838042683
0.0003809745398
0.0003694644661
0.0002375333296
0.0002281329374
0.0002004139601
0.0003398201879
0.0001945903457
0.0003097350124
0.0002129201014
0.0001821302886
0.0001524567285
0.0001507449648
0.0002009012394
0.0001850206895
0.0002098836485
0.0002125072829
0.0002958595831
0.0003724270025
0.000418119873
0.0003037705412
0.0003366604144
0.000213474386
0.0002079947007
4.333158193e-05
5.249231262e-05
2.686018208e-07
4.890674927e-05
1.046416693e-06
4.079233542e-05
8.513829055e-05
0.0001468798316
3.652863264e-05
0.0001000723462
0.0001408030088
0.0001898037647
0.0001065630969
0.000112968455
0.0001806611403
0.0002936017187
0.0001862703648
0.000164273419
0.0001775772736
0.0002492253621
0.0003069087008
0.0002081976897
0.0002341595764
0.0001873989428
0.0003544419675
0.0002407338785
0.0002641312362
0.0004064933537
0.0003016732094
0.0003113699879
0.000347393148
0.0003002745576
0.0003547312139
0.0002401083343
0.0002593836923
0.0003122744061
0.0003424807719
0.000432025819
0.000312077408
0.0002304538586
0.0001615576997
0.0001805072203
5.826888379e-05
4.043096221e-05
1.12283501e-05
2.696926509e-05
3.812332083e-05
0.0001004616988
5.830183591e-05
9.170376921e-05
6.629951616e-05
5.27218066e-05
0.0002063516675
0.0002750565075
0.0001367189434
0.0001615865655
0.0001940123931
0.0001636636728
0.0002515471016
0.0002456566532
0.0003103258082
6.973938894e-05
0.000288472679
0.0002827171799
0.0002701481735
0.0002927072539
0.0004156033856
0.0003896495795
0.000394900561
0.000425390527
0.0003862411147
0.0002852381817
0.000277733812
0.0002399052093
0.0002145265739
0.0002178270017
0.0003254945042
0.0002102505361
0.0001420923169
0.000282376067
0.0002429586517
0.0002899071735
0.0002153845635
0.0002016178319
0.0001574582353
6.560945912e-05
5.611371148e-07
4.141117725e-05
6.512157314e-05
5.651613971e-05
2.910565965e-05
7.67023168e-05
0.0001334610723
0.0001945852575
0.0002143234194
0.0001230198027
0.0002565272731
0.0001418374747
0.000405319291
0.0002266459027
0.0001950794597
0.0004253252243
0.0003584980674
0.0002825273629
0.0003295193575
0.000460481522
0.0003594665564
0.0003091383965
0.0003479422265
0.0003044566749
0.0002675207798
0.000360379733
0.0003611464597
0.0003622508847
0.0002691607823
0.0002923251983
0.0002763396681
0.0003130425391
0.0002433462117
0.0002391988398
0.0002726918933
0.0002225865508
0.0003198097148
0.0002089308332
0.0001320454544
0.0002044461775
0.0001330334065
3.934728722e-05
4.442972782e-07
1.815951248e-05
5.103533205e-05
5.575735617e-05
3.43199841e-05
7.325965891e-05
7.650360975e-05
4.73403951e-05
6.58178373e-05
0.0001032633793
0.0001718336492
0.0002356473065
0.0002494017134
0.0003748124629
0.0002968361603
0.0002560813066
0.0003286831249
0.0002105470375
0.0002188918572
0.0002986082112
0.0002824792998
0.0003716682038
0.0003423548115
0.00029314344
0.0003309969804
0.0003538374116
0.0002502019015
0.0001588430344
0.0002602777505
0.0003220437744
0.0002806960853
0.0002897036792
0.0003097093218
0.0002255773469
0.0003394828234
0.0002731481719
0.0003426766668
0.0001807257005
0.000283023705
0.0001899370505
8.220822761e-05
3.535156313e-05
4.617293734e-06
4.972351925e-05
8.797450598e-07
4.146469277e-05
6.963877187e-05
5.871232113e-05
7.328046428e-05
5.343709908e-05
0.0001250217501
8.837469586e-05
8.981443132e-05
8.784675099e-05
0.0002363180818
9.988092096e-05
0.0002802467368
0.0002897293055
0.0003242833702
0.0002498608013
0.0001484983502
0.0001677096578
0.0001832735118
0.0003062551503
0.0001883122185
0.0004263738818
0.0001920456443
0.0002830185744
0.0002360735235
0.0001653517818
0.000297105581
0.0003081827463
0.0004413016316
0.00039133803
0.0002724586956
0.0003371100225
0.0002886969261
0.0003807872545
0.0003964813216
0.0002554868853
0.0002528227542
0.0001567064516
7.626445055e-05
5.119292647e-05
7.326690029e-05
8.487185159e-07
1.579998176e-06
7.147655992e-05
2.667884415e-05
3.82086443e-05
5.156847062e-05
6.398351031e-05
0.0001600077919
0.0002005390567
0.0001555401435
0.0002330939995
0.0002073781054
0.000193683653
0.0002017270279
0.0002704375712
0.0003071302721
0.0003161033615
0.0001335369635
0.000152628266
0.000178998809
0.0002543801451
0.0001980809124
0.0003996481121
0.0002739126581
0.0003043605237
0.0002260422672
0.0002199597033
0.000111126574
0.0002267073995
0.0002982157161
0.0003093897554
0.000259399418
0.000249773397
0.000243168333
0.000250471863
0.0003654239826
0.0002788726241
0.0003288892938
0.000183409277
0.0001143367179
2.787851038e-05
4.14185805e-07
6.911679412e-07
3.292796569e-05
6.765841221e-06
2.257752333e-05
7.901101066e-05
2.342137235e-05
5.254266499e-05
0.0001612492694
0.0001797026646
0.0001681677885
0.0002142461529
0.0001250208661
0.0002592633178
0.0003318658511
0.0002071010931
0.0002601275202
0.0001782491967
0.000326947769
0.0001335990468
0.0001810809186
0.0002147696548
0.0002710929786
0.0002696226928
0.000317427971
0.0002408498188
0.0002634323438
0.0002419029258
0.0002451418337
0.0002200418936
0.0003141683842
0.0003205475554
0.0003187958006
0.0002600439021
0.0002441697088
0.0001992771661
0.0002943229532
0.0001627194697
0.0001121550758
0.0001997939195
0.0001001726351
2.169048529e-05
3.978600677e-07
3.263486115e-05
1.364852322e-06
4.85986152e-05
0.0001104381595
0.0001189814051
0.0001196973715
6.581613849e-05
0.0001227511569
5.32807129e-05
8.27275324e-05
0.0002155047973
0.0002585896792
0.0002847013135
0.0003162502331
0.0002139479679
0.0002818029141
0.0001693704699
0.0002549848504
0.0001638834569
0.0001141803994
0.0002851487767
0.0002820959022
0.0002701633592
0.0002436447931
0.0003255267752
0.000361019551
0.0003279421586
0.0003076689225
0.000288051894
0.0002228516987
0.0003538853896
0.0002997211255
0.0003237999153
0.0002368769835
0.0001239624554
0.0002053919318
0.0002631688306
0.000229224762
0.0001121579892
0.0002966558212
2.468581814e-05
1.970256948e-05
9.665415828e-05
0.0001239393308
5.38898135e-05
7.38363037e-05
2.801464109e-05
4.782482812e-05
5.368143292e-05
4.216523978e-05
7.214596102e-05
0.000157878114
0.0001093591229
0.0002129422563
0.0002046687919
0.0002041389264
0.0003254090163
0.0003105269781
0.0002755350837
0.0003632557671
0.0003119113954
0.0001999770166
0.0002211412736
0.0002440679952
0.0003621903063
0.000217771593
0.0003018921953
0.000298381168
0.0004047930417
0.0001949910125
0.0003319927101
0.0003214267229
0.000274969948
0.00032845805
0.0002697847101
0.0002708579255
0.0002710352737
0.0002095094868
0.0002366714453
0.0001897858369
8.712590468e-05
0.0002151451874
4.222507515e-05
5.948419539e-05
3.831738135e-05
0.000116199082
0.0001186686368
0.0001553863801
9.251372195e-05
7.25855444e-05
7.921459432e-05
4.126516036e-05
0.0001105103756
0.00017363234
2.44822333e-05
0.0002023776005
0.0002386291633
0.0002521468539
0.0003160634954
0.0003131200119
0.0002367805561
0.0002886515414
0.0003489158048
0.0002402845516
0.0001849714835
0.0001636752481
0.0002444715872
0.000126159388
0.0002687814862
0.0003231824917
0.0003647053395
0.0003048770436
0.0002554424602
0.000280745571
0.0002812426065
0.000293715162
0.0003981527445
0.0002383187506
0.000370731979
0.0002301025797
0.0003292971831
0.0002166467569
0.0001859063269
0.0001125912101
4.39215864e-05
3.777389848e-05
0.0001226946947
0.0001106609877
1.880181004e-05
2.957757435e-05
0.0001084051541
9.667480432e-05
0.0001328829716
0.0001081920891
0.0001327952655
0.0001864812006
0.0001665510827
0.0002131946755
0.0002534003063
0.0001225253688
0.0002230920663
0.0003636620662
0.0001983425423
0.0003009638499
0.0002732201634
0.0001846712092
0.0002142706494
0.0002768933263
0.0003247928204
0.0002653577005
0.0003289039402
0.0002127366641
0.0003488972901
0.0003418918044
0.0002518888772
0.000206379889
0.0003040742681
0.0001584708748
0.0001856107846
0.0003297967625
0.0002524958373
0.0002516612074
0.0002507852692
0.000177055558
0.0002073480003
0.0002379190255
3.611786615e-05
2.341054843e-05
4.467184929e-05
7.727380414e-05
1.613828715e-05
5.217379464e-05
1.681065212e-05
0.0001044920802
0.0001342847726
1.582894071e-05
0.0001336898406
0.0001331401282
0.0001792680994
0.0001422617262
0.0002208660929
9.853906858e-05
0.0001689337005
0.000190194056
0.0003526526595
0.000215713827
0.0003221372435
0.0002700227318
0.0002617097897
0.0004824821744
0.0003076585796
0.0002564018977
0.0002812681703
0.0002623628795
0.0001899387045
0.0001814912144
0.0002305778425
0.0002172415782
0.0001471697723
0.0002477673385
0.0002264718211
0.0002947181601
0.0003335817667
0.0003613225297
0.0003497459511
0.0003001535002
0.0002289530931
0.0001737227951
3.852033714e-05
2.437971956e-05
3.660541681e-05
1.378043045e-06
2.012794396e-06
4.604837159e-05
0.0001377790602
1.64367713e-05
0.0001524732171
0.0001517541035
6.36192744e-05
8.715029074e-05
7.289594564e-05
0.0002367010244
0.0001695599801
0.0001699046609
0.0002416796605
0.0001182240187
0.0002882141301
0.0002348419155
0.0003635448977
0.0002367557214
0.0002894333151
0.0002021842492
0.0002899924173
0.0001562017773
0.0002616844297
0.0002341928165
0.0002899561963
0.0002186253529
0.0002697078787
0.0002963444809
0.0002699358239
0.0002386418761
0.0002357000115
0.0003427050926
0.0002413603043
0.0002599223689
0.0003362687992
0.0002266582199
0.0002944781868
0.000119199482
3.133981029e-05
4.492357939e-05
1.125800065e-06
1.552987504e-06
2.075108733e-06
6.504961734e-05
8.822429127e-05
0.0001205770358
9.017633975e-05
3.575219202e-05
9.368324225e-05
3.918068102e-05
7.772153369e-05
3.842738472e-05
0.0001381341367
0.0001677415297
0.0001870983128
0.0001903467624
0.0001795904828
0.0002975703709
0.0004197080503
0.0003515907106
0.0003132255902
0.0003325660769
0.000373735198
0.0002910201923
0.00018125226
0.0001577481812
0.0003565063292
0.0002074244562
0.0002990641009
0.0003717396678
0.0002723825755
0.0002880508224
0.0002220167864
0.0003014892024
0.0002861196639
0.000270293093
0.0001996908324
0.0002908109836
0.0001939123706
0.0001199938778
4.513750283e-05
5.660514771e-05
1.022898225e-06
7.947646822e-06
8.01739072e-05
2.134766027e-06
1.948586981e-06
1.94919391e-05
0.0001969268015
0.0001806324849
8.818105748e-05
0.0001190919724
0.0001289658391
0.0001067121426
0.0003038288008
0.0001725128979
0.0002708405965
0.0003179815962
0.0001871967052
0.0003030730139
0.0003603033171
0.0003842983342
0.0003773847839
0.0004174409005
0.0003121680438
0.000366841142
0.0002549307555
0.0001963001458
0.0001896839542
0.0002523714136
0.0003169530767
0.0003077090653
0.0002447234482
0.0003457467048
0.0001891096618
0.0002129194744
0.0001386986698
0.0002654052118
0.0002732333631
0.0003238622024
0.0002195983514
0.0001148046439
2.860195185e-05
7.408771598e-06
1.076280664e-06
5.555025431e-05
3.214432385e-05
4.864220792e-05
0.0001476862807
0.0001117762982
0.0001779273418
5.919884377e-05
0.0001583829341
9.68152795e-05
6.564000305e-05
0.0001639663704
0.0002683518019
0.0001970050183
0.0002482798356
0.0002330749329
0.0001012641557
0.0002394137685
0.0002915829964
0.0002769416942
0.0003227632687
0.0003054621892
0.0002537367269
0.000305407008
0.0003526674611
0.0002882307243
0.0003299885919
0.0002369677815
0.0002170975889
0.0002437549454
0.0002755011156
0.0002429152304
0.0003482386979
0.0002492156016
0.000185127458
0.0002510280096
0.0002145653431
0.0002639478884
0.0002092818292
0.0001159945757
2.843851315e-05
3.239143233e-07
8.614180509e-07
7.705088739e-05
0.0001566870377
0.0001119908846
0.0001165955672
0.0001815617061
0.0001001554156
0.0001953807944
0.0002168530796
8.522924965e-05
0.0001356857512
0.0001509290876
0.0001742498137
0.0001429394386
0.0001553089153
0.0002683924626
0.0001783538213
0.0001715328011
0.0001470540721
0.0002842986089
0.0001561128134
0.0003568076135
0.0002960659356
0.0002514418039
0.0003163525749
0.0003070970647
0.0002380320991
0.0002670389914
0.0001679664236
0.0002156536398
0.0002715783684
0.0003128596648
0.0002645430014
0.0002775046087
0.0002351001865
0.0002494038122
0.0003677180843
0.0001943131095
8.163447528e-05
0.0002189246514
5.167652074e-05
4.756343553e-07
1.000787486e-06
9.248621258e-06
1.842649074e-05
7.248030832e-06
0.0001130535243
0.0001542633599
0.0001450486903
0.0001934872518
0.0002489306463
0.000198161557
0.0001781620874
0.0002640510529
0.0001857078286
0.0001957556007
8.723795277e-05
0.0002513669112
0.0002930909299
0.0002907967092
0.000216159357
0.0003306921036
0.0002813356357
0.0002765073135
0.000273115919
0.0002688663084
0.0002989281641
0.0002115447567
0.0003718690705
0.0002260106742
0.000267124481
0.0002204554696
0.0001180173026
0.0001660221041
0.0002771420719
0.0002965699245
0.0003257269975
0.0003161227134
0.0002968477301
0.0003326764445
0.0002569318902
0.0001499755385
4.482346879e-05
5.063356219e-07
7.114333662e-07
8.837606402e-07
1.447418924e-05
5.772403591e-05
0.0001205965802
0.0001208794443
7.166600417e-05
0.0002271095685
0.0002196541393
0.0002363711312
0.0002928996157
0.0002017512935
0.000160713634
0.0001955716861
0.0001580824309
0.0002290432803
0.0002253794623
0.0001872184268
0.0001284599503
0.000203513012
0.0002531590459
0.0002567464098
0.0002316510248
0.0002621011681
0.0002932540176
0.00022247007
0.0002316637698
0.0003518682769
0.0002292329946
0.0002322292018
0.0002186346148
0.0002311645494
0.0003573498254
0.0003717495876
0.0002025691947
0.0002750370412
0.0002282449759
0.0003660789107
0.0002770895396
0.0001496864601
4.915473464e-05
4.893070161e-07
8.819971671e-07
7.992744556e-05
7.893224022e-05
4.653475837e-05
6.783167218e-05
0.000141923773
0.0001423833129
0.0001196849318
0.0001514459857
6.771667964e-05
9.768730411e-05
0.0002100633219
0.0001287888493
0.000294385569
0.0002012349495
0.000164529791
0.0001676474439
0.0002305522294
0.0001377411016
0.000158787397
0.0002874069305
0.0003226128305
0.000240976854
0.0002381642686
0.0002282475532
0.0002683370637
0.0002480110066
0.0003587581645
0.0002131514205
0.0003250775553
0.000316062259
0.0002483239669
0.0001645207347
0.0003896502907
0.000283141328
0.0002615719631
0.0002056213932
0.0003259201027
0.0002415877531
0.0002192892529
3.034300525e-05
3.779809881e-05
5.194099353e-05
0.000108793693
0.0001460869226
0.000132602015
9.551289936e-05
0.0001224044606
0.0001058273893
0.0001000125093
0.0001188596713
0.0002087107232
8.686886409e-05
0.0001182339937
0.0001049064113
0.0002246243558
0.0001358591001
0.0001867098528
0.0002848127907
0.0002267938774
0.0003801713094
0.0003283332229
0.000221749767
0.0002106334078
0.0002778095175
0.0002111054554
0.0001854156926
0.0002198744401
9.072296991e-05
0.0002101881557
0.0003343019487
0.0002664753092
0.0002665966276
0.0003307826785
0.0002743912409
0.0002404786555
0.0001576458076
0.0001467935286
0.0002192768278
0.0002149041492
0.0001754380918
0.0001822871945
3.322408134e-05
6.55161543e-05
9.867851474e-05
0.0001466572854
0.0001342948232
0.0001218535837
0.0002091122937
8.619010466e-05
6.547408909e-05
8.307171081e-05
0.0001515957681
0.0002805834781
0.0002024745277
0.0001191404577
0.000162538328
0.0002741858291
0.0001658665975
0.0002326881912
0.0003258195846
0.00034626643
0.000246770549
0.0001202040338
0.0001194332998
0.0002403378044
0.0002403312207
0.0002888191962
0.0002869574172
0.0002058038353
0.0001362386285
0.0001654168829
0.0002402082151
0.000290183957
0.0003834237402
0.0002593023847
0.0002198745527
0.000209643246
0.000182392388
0.0001272073319
0.0001347936268
0.0001793288669
9.465193644e-05
0.0001459036353
3.16966182e-05
1.253006692e-05
5.70795479e-05
4.727611521e-05
6.504386336e-05
0.0001331276649
9.932094549e-05
5.302298037e-05
3.853765403e-05
7.003820766e-05
0.0001275594007
0.0001204211014
0.0001716772066
5.877416572e-05
0.0001483184392
0.0002278673874
4.913357695e-05
0.0002793476644
0.0002432079379
0.0003775620841
0.0001647439438
0.0001156840053
0.0001571936001
0.0002002839915
0.0002313370157
0.0001811918633
0.0003955575925
0.0003237357445
0.0001506952176
0.0001821417798
0.0002118702303
0.0002716792056
0.0002283158376
0.0002293106993
0.0001647308279
0.0003185592079
0.000218487826
0.0001555434106
5.627012182e-05
0.0001949799014
4.968857631e-05
7.369332374e-05
3.892159033e-05
5.412742279e-05
0.0001018694585
0.0001576606014
0.0001732514787
0.0001857436201
0.0001202983027
0.000169828724
7.55506517e-05
0.000203807877
0.0001587141108
0.0002242080297
0.000173714853
0.0002202875213
0.0001971497165
0.0001575444514
8.457365766e-05
0.0001646383324
8.397938301e-05
0.0001833417351
0.0001771769118
4.390456289e-05
8.829523332e-05
0.0001986503183
6.942088319e-05
0.0001394108463
0.0001979776095
0.0001753224909
0.000139244941
0.0001540749912
0.0001503161381
0.0002011094034
0.0001817079618
0.0002220991136
0.0001593264441
0.0002179936928
0.0001489687699
7.202266751e-05
0.0001439120203
0.0001015494161
0.0001095257451
0.0001569839701
5.645304179e-05
0.0001266591389
0.0001730005311
0.0002428542901
0.000289434501
0.000309654367
0.0003512715061
0.0003645008875
0.0004016321829
0.0003541204552
0.000405426461
0.000516217399
0.0004337371584
0.0004889406351
0.0004334643714
0.0004005897854
0.000377669277
0.0004412715992
0.0003468281847
0.0002618488193
0.000538998478
0.0004934640177
0.0003747288141
0.000316045967
0.0002779061572
0.0002637792456
0.0003576242108
0.0005717120523
0.000433974835
0.0001579856243
0.0002706320532
0.0002708625675
0.0002380380898
0.0002354162049
0.000195460008
0.0003271886167
0.0002319072046
0.000429320162
0.0004482906359
0.0004327460825
0.0006149705328
0.0001329650052
6.950126464e-05
0.0001556789928
0.0001954495593
0.0002263557819
0.0002541926723
0.0003341403032
0.0003305648166
0.0004317990987
0.0004474024271
0.0004303882853
0.0005036971088
0.0005899913767
0.000619267526
0.0005162476967
0.0005121236
0.0005409149142
0.0005533243582
0.0006204359523
0.0004863566788
0.0006068481197
0.0006178358183
0.0005963733827
0.0006223809817
0.000482988624
0.0004854172344
0.0005713512094
0.0006619728283