/*--------------------------------*- C++ -*----------------------------------*\
| =========                 |                                                 |
| \\      /  F ield         | OpenFOAM: The Open Source CFD Toolbox           |
|  \\    /   O peration     | Version:  v1706                                 |
|   \\  /    A nd           | Web:      www.OpenFOAM.com                      |
|    \\/     M anipulation  |                                                 |
\*---------------------------------------------------------------------------*/
FoamFile
{
    version     2.0;
    format      ascii;
    class       volScalarField;
    location    "3.996";
    object      p_O2;
}
// * * * * * * * * * * * * * * * * * * * * * * * * * * * * * * * * * * * * * //

dimensions      [1 -1 -2 0 0 0 0];


internalField   nonuniform List<scalar> 
50792
(
8.74762285e-06
3.312540278e-05
7.494602544e-05
1.629384456e-05
2.34508489e-05
3.528108479e-05
5.731230266e-07
5.451442631e-05
5.841641589e-05
1.20096295e-05
8.735100404e-05
5.794825599e-05
9.501462387e-05
7.829324575e-05
6.520117367e-06
0.0001134993673
3.573759281e-05
4.055003804e-05
7.359169549e-06
6.149642289e-06
4.041568609e-06
1.775466827e-05
3.476336565e-05
3.122566629e-05
1.97729003e-05
9.631290588e-06
0.0001853114716
9.184899647e-05
5.139482544e-05
7.318211229e-05
8.550798133e-05
3.79276611e-05
1.124461803e-05
9.645577874e-06
0.000111000057
1.292369126e-05
1.162308567e-05
3.602900654e-05
1.417254071e-05
1.3337528e-05
2.066362621e-05
1.767279753e-05
1.901112627e-05
1.480176831e-07
1.561157798e-07
2.544649443e-07
3.284759287e-07
4.148623752e-07
3.692963777e-05
6.879057174e-05
2.579983645e-06
6.896728004e-05
1.633598435e-05
6.40015451e-05
4.335968361e-05
2.296425846e-05
2.028281409e-05
6.390779364e-05
4.871130862e-06
4.881070428e-05
1.676932094e-05
6.911754541e-05
8.163750978e-05
0.0001118342759
0.0001093419172
6.354220842e-05
5.140231217e-05
5.339752245e-06
5.479849824e-05
1.942694828e-05
2.613462894e-05
9.605701981e-05
6.728700507e-05
0.0001502628108
7.602879352e-05
3.193822046e-05
7.46908434e-05
7.467859926e-05
6.760997889e-05
0.0001318490624
0.0001204050487
6.027632348e-05
3.99869308e-05
8.113128398e-06
3.808071633e-09
1.968771134e-08
9.314290256e-08
9.984065671e-08
2.615227513e-07
3.337753936e-07
5.844865943e-05
1.902846417e-05
4.835650662e-07
6.290934137e-05
8.561665954e-06
1.428029251e-05
3.164977629e-05
1.990533056e-05
3.390357176e-05
8.402580717e-06
1.746797255e-05
0.0001042284661
6.637553755e-05
3.271166221e-05
5.48946623e-05
7.884933722e-05
4.800130932e-05
7.792517532e-05
1.928908172e-05
6.407251854e-06
3.74348842e-05
6.194539908e-05
5.247309026e-05
1.406891536e-05
3.159285146e-05
0.0001607394686
6.029164683e-05
3.54225522e-05
0.000101894203
6.425544882e-05
3.048400369e-05
2.855224364e-05
6.405187274e-05
2.257892192e-05
0.000112087252
7.545352629e-05
3.331464341e-06
3.402718956e-08
1.417003607e-07
1.752315568e-07
2.252734211e-07
3.372319053e-07
4.63012677e-07
4.542922941e-07
4.208814214e-05
1.425559516e-05
6.709333502e-05
9.29316915e-05
3.731788084e-05
2.062847136e-05
3.488209657e-05
3.025309112e-06
0.0001328090533
3.352440611e-05
7.331350159e-05
0.0001456469504
0.0001214779068
0.0001102350025
1.191273856e-05
4.365089763e-05
1.502015273e-05
1.07704203e-05
6.681884281e-05
8.81165382e-05
5.152601382e-05
2.811304922e-05
0.0001018481544
0.0001100051608
0.0001228678937
5.775637442e-05
6.554264014e-05
2.371253427e-05
3.021722319e-05
1.391198391e-05
0.0001014403976
7.91440538e-05
3.183709012e-05
9.611593584e-06
1.326610768e-05
7.248912151e-08
2.277361487e-05
2.21280833e-05
6.917361216e-07
5.696556784e-07
6.781755018e-05
2.374882108e-05
7.703657951e-05
1.046828257e-05
6.04169019e-05
1.853473472e-05
5.000193929e-05
4.710877188e-05
1.404274294e-05
3.450279345e-05
7.458898852e-05
3.047614002e-05
4.565344238e-05
6.69662858e-05
9.060082706e-06
0.000108102286
0.0001131005662
8.633941218e-05
2.697857786e-05
0.0001165704411
7.592097141e-05
1.970215009e-05
8.395947103e-05
0.0001313726221
0.0001077567129
0.0001152528483
0.0001140588083
5.0425386e-05
8.754708735e-05
1.060499353e-05
3.970908432e-05
3.874310817e-05
7.265217576e-05
4.875039765e-05
6.800036078e-05
2.123456443e-05
1.535635128e-08
7.079540555e-08
1.184062869e-07
1.706929262e-07
3.73659551e-05
3.032584226e-07
5.357609037e-06
7.197948756e-05
5.454355335e-05
8.634876528e-06
2.5210665e-05
5.770745496e-05
6.235360589e-06
4.433925828e-05
3.254068406e-05
5.313741536e-05
1.824153338e-05
6.357987521e-06
3.999195562e-05
5.894771623e-05
2.228640439e-05
0.0001204604802
5.516503663e-05
9.255240618e-05
2.626746716e-05
4.520370352e-05
5.264276805e-05
0.0001013955733
0.000117081402
4.485012937e-05
5.811743524e-05
8.065943525e-05
0.0001223708074
9.254752211e-05
8.127544343e-05
4.185311009e-05
1.228122315e-05
4.500316076e-05
5.943035685e-05
9.436205567e-05
0.0001198851569
2.585512146e-05
4.60063774e-07
3.24138009e-10
2.192052545e-09
6.717860739e-08
1.717682797e-07
6.341014732e-06
3.843731118e-05
4.226224043e-06
2.569760468e-05
2.956461001e-05
1.668746262e-05
1.293063233e-05
5.55528439e-05
9.182811291e-06
1.56123122e-05
5.185500153e-06
2.888519599e-05
2.105277077e-05
5.20533577e-05
8.643849332e-05
0.0001055841051
3.737818683e-05
4.695705966e-05
3.454616913e-05
5.312660263e-05
6.47620388e-05
0.0001227183344
9.729442869e-05
7.261693635e-05
6.535462429e-05
7.983719151e-05
5.484619952e-05
9.642052813e-05
1.002087819e-05
1.716835289e-05
4.532854158e-06
4.874802792e-05
4.106224433e-05
3.84683772e-05
6.605536408e-05
9.535148017e-05
3.186215535e-05
4.984033537e-09
8.813635004e-08
2.991112943e-07
5.601347069e-07
5.757529539e-07
2.513158268e-05
1.46449201e-05
2.714057818e-05
2.26897474e-06
4.90265499e-05
3.66159482e-05
1.478699477e-06
5.664880826e-06
3.122441083e-06
2.081500737e-05
3.507343394e-05
1.08886142e-05
1.742904901e-05
7.758054546e-05
6.49452174e-05
8.075150172e-05
8.712584059e-05
5.629957648e-05
4.975189739e-05
4.679980088e-05
0.000142214925
0.0001142411917
9.003231587e-05
5.227221871e-05
6.827433102e-05
7.25659056e-05
6.147893447e-05
3.38006985e-05
0.0001108442759
5.625514078e-05
3.440984227e-05
6.268592112e-05
4.599539342e-05
9.370799901e-05
2.891765076e-05
7.702936655e-05
7.445007982e-05
3.872807679e-08
1.418250879e-07
2.150127463e-05
1.737364884e-07
2.319525226e-07
2.382639479e-07
3.996933116e-07
4.963630122e-05
2.019320975e-06
5.385862335e-05
5.228859583e-06
1.957370181e-05
9.140431824e-07
1.08389659e-05
5.950990749e-05
8.723943911e-06
3.267108602e-06
2.158002365e-06
4.312433963e-05
6.436804452e-05
1.109193242e-05
0.000145055957
5.610597458e-05
0.0001137676474
4.723645645e-05
1.18369263e-05
4.644351871e-05
6.842176932e-05
9.101065981e-05
0.0001535692104
0.0002228588815
0.0001544781139
0.0001066718454
6.105952428e-05
6.056082785e-05
0.0001316278503
0.0001188388916
0.0001606054367
0.0001081467348
4.948200746e-05
0.0001386051767
2.593378848e-05
8.85823242e-06
3.872098342e-08
2.811562433e-05
1.249346666e-07
3.200707001e-07
5.552967042e-07
3.278188705e-05
4.611181826e-06
5.032791446e-07
3.954238231e-05
2.885908583e-05
5.432356742e-05
3.394502142e-05
4.025251313e-05
8.137853725e-05
3.227631158e-06
3.330737933e-05
1.483583106e-06
4.091873664e-05
6.026717664e-05
8.334249779e-05
9.28166444e-05
4.977315663e-05
9.443091001e-05
8.818582059e-06
1.157295597e-05
4.91807945e-05
5.309843486e-05
9.757137353e-05
0.000164669235
2.081030764e-05
7.08457662e-05
1.266118345e-05
0.0001316618472
4.028015996e-05
3.481482066e-05
3.641087421e-05
9.169986958e-05
0.0001166279966
5.20393098e-05
0.0001013409169
2.66861103e-05
9.500778833e-06
-6.776263578e-21
9.691333093e-06
4.706587855e-08
1.459559615e-07
2.812313092e-07
3.295723855e-06
1.877093277e-05
8.318426994e-05
1.962344995e-06
5.375289599e-05
9.802171162e-07
8.282724504e-05
4.904125381e-05
0.0001064412113
3.654351678e-05
7.664373778e-05
2.464828779e-05
2.085535639e-05
3.661709959e-05
1.034512799e-05
8.24137838e-05
8.586327711e-05
7.135007863e-05
8.977404184e-06
1.680047136e-05
3.010222485e-05
7.210374104e-05
0.0001027593109
0.0001161463037
6.564788822e-05
4.466085971e-05
5.7838989e-05
6.521646183e-05
0.0001041943509
6.613362503e-05
2.549534452e-05
8.953289376e-05
0.0001132172066
5.103596287e-05
6.686027394e-05
1.626405155e-05
4.602759837e-06
2.963819945e-05
6.933556576e-06
1.924731958e-07
4.011808907e-07
4.840422025e-07
2.395248369e-05
9.930384614e-06
1.384430212e-06
9.880659565e-07
2.397054704e-06
6.801958671e-05
3.452359049e-05
0.0001231496565
5.630042828e-05
1.380258291e-06
7.909161258e-06
6.307089715e-05
7.810104254e-05
5.197337191e-05
6.431542052e-05
3.359760348e-05
4.240416944e-05
6.49364858e-05
2.443202154e-05
0.0001061766212
7.478948673e-05
0.0001254369977
7.772870089e-05
0.0001307208739
0.0001284569957
0.0001066730281
0.0001175851076
7.295835041e-05
6.116652732e-05
8.702685228e-05
8.386833768e-05
8.241858834e-05
6.571697293e-05
9.566136568e-05
3.169749208e-05
3.364384686e-05
7.282789194e-06
2.309440025e-05
3.183863737e-07
4.515962237e-07
4.821992402e-07
2.469122779e-05
8.340814231e-05
2.615071158e-06
1.834240017e-05
4.892077167e-05
1.330325301e-05
4.365321879e-06
1.937662826e-05
1.214574312e-05
5.785139589e-05
5.960113566e-06
1.586497743e-05
4.409835871e-05
0.0001085529438
0.000130771391
9.139689641e-05
9.009138874e-05
0.0001299342264
5.381608082e-05
6.148600016e-05
1.66888883e-05
8.025261548e-05
7.726294278e-05
7.402380136e-05
7.981473207e-05
8.253424054e-05
9.824758036e-05
0.000140015379
0.0001101378706
0.0001001243247
0.0001078876705
0.0001295973528
0.0001143346053
6.598966307e-05
0.0001218970126
5.32253984e-05
4.751426748e-05
1.519448737e-05
5.65022778e-05
5.342428782e-07
7.578076422e-07
8.494166628e-07
8.745042958e-07
6.893589296e-05
7.950039465e-05
9.006455597e-05
9.752549382e-07
3.897244657e-05
7.771128997e-05
9.734463401e-07
5.019610672e-05
1.402403535e-05
8.090794936e-05
1.161306216e-05
3.784776276e-05
0.000117945582
5.779702994e-05
1.059159839e-05
6.752450028e-05
0.0001421127183
8.54010872e-05
1.259142073e-05
0.0001000927152
8.751809981e-05
7.995759806e-05
0.0001294922233
9.413397255e-05
9.351827568e-05
0.000142377353
0.0001605050602
3.456300655e-05
0.0001261318355
0.000171945477
0.0001756926636
0.000145174321
0.0001524334026
0.0001100491359
7.710032622e-05
2.625762391e-05
3.621550095e-05
1.9859355e-07
3.210561421e-07
4.45849292e-07
4.904419753e-07
1.992021859e-06
3.654885049e-05
8.884196329e-05
5.489783222e-07
1.99765665e-05
3.886591693e-05
2.66064257e-05
2.360646143e-06
5.146294142e-05
1.728402305e-05
4.868888738e-05
1.325244169e-05
4.470969431e-05
8.718025723e-05
5.299205938e-05
8.027223074e-06
7.460807576e-05
0.0001125869694
0.0001351445031
0.0001080436535
0.0001508683288
8.05940367e-05
8.041098451e-05
0.000101747061
8.481786988e-05
4.407544947e-05
7.233500051e-05
0.000180509922
0.0001426334767
0.0001688562539
8.31584408e-05
0.0001164617191
0.0001206619285
0.0001182907217
0.0001263120777
6.32288948e-05
1.707070964e-05
7.15021874e-06
8.450574111e-08
1.565068101e-07
1.677812934e-07
6.938588569e-06
1.393732319e-05
1.417893082e-05
1.512610761e-05
1.548575167e-05
3.788172959e-05
3.286231884e-05
2.21212935e-05
3.219262236e-06
7.23209887e-05
4.991889094e-05
9.175585367e-05
1.870757874e-05
9.270536816e-05
5.509335475e-05
0.0001306020267
3.786947052e-05
0.0001105329919
8.82891132e-05
0.0001337648575
6.863385807e-05
6.781172835e-05
8.752291323e-05
8.090611705e-05
7.354453414e-05
9.135392677e-05
3.787705902e-05
4.747050648e-05
6.696543565e-05
0.0001194143052
2.078463629e-05
5.270788593e-05
9.095403912e-05
2.350145644e-05
0.0001100090132
8.169065485e-05
7.49860802e-05
4.0018412e-05
3.998524751e-06
3.375900887e-08
8.80719405e-08
1.71176002e-07
2.760685535e-07
4.216472269e-07
2.474730131e-05
3.672006724e-06
3.335985751e-05
9.404852568e-05
7.18201776e-06
8.007761205e-06
1.356780249e-05
6.624054547e-05
0.0001258583055
8.070105624e-05
9.365667202e-05
7.730773119e-05
0.0001255399664
8.855802926e-05
1.700611063e-05
7.473026721e-05
5.984617033e-05
0.0001130177502
0.0001044980671
4.256811275e-05
0.0001009301066
8.625400044e-05
0.0001160861791
6.152128679e-05
4.906051784e-05
6.938766597e-05
0.0001055571291
9.955536531e-05
2.148106943e-05
9.482758577e-05
5.092376653e-05
5.798546018e-05
0.0001014389907
0.000139413307
0.0001087196118
2.528419505e-05
1.225235801e-05
7.885454025e-08
2.874202411e-07
3.668924119e-07
3.831195185e-07
2.464940374e-05
4.652859122e-07
1.030597859e-05
5.785686223e-05
4.834171714e-06
2.533145766e-05
2.872666335e-05
6.05724387e-05
3.456220024e-05
3.240449453e-06
9.42886358e-05
5.71731932e-05
0.0001051423028
9.689090534e-05
4.151574223e-05
2.410395023e-05
6.988860426e-05
7.299933811e-05
9.428618576e-05
0.0001155144467
6.603833001e-05
0.000123311812
4.971665566e-05
0.000109571924
6.543134288e-05
9.528709354e-05
7.78333825e-05
1.463006628e-05
8.113036972e-06
3.890440516e-05
9.866809674e-05
0.0001213821042
1.287806585e-05
2.049463492e-05
0.000153256156
8.070165832e-05
4.356973195e-06
1.772307856e-05
8.331654185e-08
1.258401571e-07
1.151200133e-05
2.49288525e-07
2.652275278e-05
7.114436115e-05
1.059146453e-05
2.634092484e-06
2.191373373e-05
4.531784314e-05
3.871314405e-05
0.0001111275042
0.0001074116336
3.926414748e-05
3.007041739e-05
0.0001057466828
0.0001412170406
0.0001019512891
7.221168606e-05
7.080140735e-05
5.704064864e-05
0.0001186930851
0.0001668822391
0.0001237212369
1.112257172e-05
6.891049075e-05
8.195549069e-05
8.091667191e-05
0.0001069410947
0.0001229801578
0.0001417853585
7.925135451e-05
5.573735033e-05
6.673043585e-05
6.382516537e-05
8.351164492e-05
5.733076831e-05
2.61135902e-05
8.79058952e-05
6.080955896e-05
9.992422116e-06
1.543596633e-06
1.126187188e-07
2.567965737e-07
3.424641884e-05
2.129451135e-05
5.574055832e-05
4.576917091e-05
8.804054736e-07
2.403981016e-06
8.244122713e-05
4.666800048e-05
2.347314429e-05
4.930938857e-05
5.474006954e-05
4.430108771e-05
5.457736916e-05
3.450931737e-05
8.366070696e-05
6.461296609e-05
0.0001103811864
6.846133625e-05
4.893205746e-05
0.0001110667075
0.0001209802676
4.841751496e-05
1.867342106e-05
3.17319566e-05
0.0001003131093
7.566684873e-05
7.97224733e-05
0.0001007922947
7.203191951e-05
8.920883529e-05
7.874723947e-05
5.312253986e-05
2.39495821e-05
6.792661603e-05
8.568092366e-05
5.370274561e-05
2.882086105e-05
5.441700235e-05
2.397805065e-05
1.489005056e-05
2.061109015e-07
2.28369619e-05
4.06049019e-07
6.117333485e-05
3.851085588e-05
8.418306666e-06
3.482126372e-05
3.419401367e-05
9.841101034e-07
1.060875234e-06
3.03480943e-05
2.142182835e-05
1.037754818e-05
1.4107674e-05
0.0001062516299
1.893295216e-05
5.873496121e-05
9.172628021e-05
0.0001151836049
7.061815945e-05
9.162285823e-05
0.0001209378396
2.848390309e-05
0.0001189824909
6.493946072e-05
8.020923595e-05
5.180624071e-05
0.0001091506905
0.0001006563293
0.0001179467596
6.237592652e-05
6.149367741e-05
6.121045711e-05
5.424981301e-05
7.680344705e-05
2.03497702e-05
5.637624965e-05
1.327106563e-05
2.299169336e-05
0.0001038565116
5.383896594e-05
1.374320484e-05
9.76889776e-08
3.363658597e-05
7.443483838e-06
3.060285503e-05
6.523881716e-05
6.403524332e-05
8.514226603e-06
3.507197442e-05
4.816701424e-05
3.824791484e-05
8.727484824e-07
4.652364809e-06
2.873470871e-06
5.068940196e-05
2.654123848e-05
5.890089593e-05
0.0001077770998
4.66724848e-05
9.413161845e-05
2.825467062e-05
3.291793579e-05
6.372844461e-05
0.0001342947144
2.206662684e-05
6.477207593e-05
5.43217164e-05
0.0001033898674
0.0001036800975
5.038158787e-05
8.853228911e-05
0.0001169370959
0.0001480203974
0.0001559300718
9.303286092e-05
0.0001253403715
8.101503457e-05
6.598954014e-05
6.973433569e-05
5.619772734e-05
6.667075869e-05
1.755873347e-05
4.235164736e-22
5.35807226e-09
1.510745855e-07
2.297586025e-07
4.719308223e-05
3.069405391e-05
2.098790695e-05
7.095249241e-05
2.340242694e-05
2.014264678e-05
0.0001029934647
1.046161729e-05
4.220127555e-05
4.346838098e-05
7.578427014e-05
1.886578738e-05
5.852994173e-06
7.405222346e-05
8.150254161e-05
7.163225041e-06
1.441085538e-05
7.061894116e-05
0.0001028313729
0.0001160579885
7.823524369e-05
6.5266573e-05
6.765308375e-05
8.038111575e-05
2.070117182e-05
2.34362676e-05
0.0001075813559
0.0001448679763
0.0001643728493
0.0001298564044
0.0001791824552
3.90261272e-05
0.000115901066
7.594868468e-05
0.0001148478044
1.682831475e-05
5.848136681e-05
3.387112551e-05
2.123019759e-05
3.21644651e-07
2.465169043e-05
5.429111951e-05
4.735790676e-06
4.039457255e-07
5.079161357e-07
1.130585389e-05
8.406747446e-05
3.814733875e-05
1.39175742e-05
6.491244471e-05
2.480315689e-05
5.014703443e-05
9.594487819e-05
2.245542496e-06
5.893487907e-06
0.0001233903943
1.568791107e-05
3.517075405e-05
1.742737684e-05
3.180694557e-05
4.222292487e-05
7.902078563e-06
7.423064439e-05
0.000128776363
0.0001281206406
5.697297227e-05
2.943085489e-05
5.72938397e-05
2.517446383e-05
0.0001371340696
0.000134738523
0.0001481417103
5.232155821e-05
1.837240517e-05
7.895621998e-05
9.75139751e-05
0.0001026959963
6.723603628e-05
8.267201837e-05
1.930971887e-05
8.379127195e-07
1.282130568e-05
2.524238566e-05
3.252989347e-07
4.775632531e-07
4.380767847e-07
5.714035462e-07
3.583792587e-05
5.316453607e-05
2.334842731e-05
5.601260129e-05
1.770352455e-05
6.083097325e-05
9.094314469e-05
5.50442141e-05
1.265806299e-05
9.38142655e-05
6.183214358e-05
4.360698982e-05
2.998482757e-05
2.483118738e-05
7.566534472e-05
6.687613602e-05
1.73561751e-05
6.882832734e-05
9.556465028e-05
0.0001055984536
7.413966244e-05
0.0001274118099
3.039144915e-05
0.0001391628347
9.631106676e-05
2.38597792e-05
0.0001091649251
0.000108133961
9.316002867e-05
4.929067083e-05
6.096524975e-05
6.347923843e-05
8.296342761e-05
7.263774994e-05
3.154491348e-05
3.974852936e-06
1.973303376e-05
2.038122634e-07
2.290570769e-07
2.553147294e-07
2.947265879e-07
6.289772834e-05
5.873121659e-07
5.588100434e-05
8.040745142e-06
6.509538419e-07
5.108581624e-05
7.55492931e-05
9.630378908e-05
9.76454158e-05
6.691948019e-05
0.0001415128233
3.110720196e-05
2.3060907e-05
1.432700924e-05
7.478342586e-05
2.324892858e-05
0.0001014042641
4.128352932e-05
2.854931105e-05
8.580356936e-05
0.000115076139
0.000135016905
5.59165445e-05
6.847363815e-05
0.0001153624147
4.313494944e-05
5.527655448e-05
5.794888658e-05
0.0001302488368
0.0001279812238
2.38106386e-05
5.794725451e-05
6.258353192e-05
9.201327279e-05
8.14802619e-05
2.619043746e-05
1.132057456e-05
7.084796168e-08
1.047864012e-07
3.428047286e-07
5.423740676e-07
6.948103343e-06
3.518081309e-06
4.855047546e-07
6.986424645e-07
7.177723571e-06
6.684565511e-05
2.998139179e-05
6.835754134e-05
7.935920479e-05
6.67126931e-05
2.461446969e-05
5.164053097e-05
6.145805e-05
4.764987939e-05
7.364042706e-05
8.259518545e-05
1.992029596e-05
2.16690022e-05
8.180304073e-06
1.096509706e-05
7.452532483e-05
8.892756283e-05
4.658077769e-05
3.381508053e-05
0.0001221479929
0.0001174234786
9.777721105e-05
0.0001305570386
0.0001014908407
0.0001037054652
0.0001170575634
6.353715902e-05
0.0001404561633
1.301712808e-05
3.973924824e-05
3.344560864e-05
2.007142979e-05
8.055323259e-06
3.849953036e-08
2.316564639e-07
4.42493473e-07
6.159231879e-07
2.130573627e-06
1.008249478e-06
7.696771296e-07
1.132953571e-06
1.228203906e-06
8.080927978e-06
2.043279405e-05
5.815802434e-05
8.182689368e-05
2.836980997e-05
2.661228696e-05
1.799103242e-05
3.091137113e-05
4.353686109e-05
4.934917992e-05
9.590112968e-05
7.504971216e-05
0.0001115608369
1.636004815e-05
6.2393296e-05
8.286261988e-05
0.000160830034
0.0001338571505
0.000142167356
0.0001349013968
7.664604396e-05
8.149724255e-05
2.408509344e-05
0.0001612021448
5.740491457e-05
0.0001389238758
8.869711795e-05
3.220229902e-05
7.769755594e-05
9.097089803e-05
2.732098791e-05
2.052923365e-05
1.211715154e-05
1.733962489e-05
3.246249234e-07
6.340991045e-07
8.3654974e-07
4.739702389e-07
1.733147089e-06
2.448710578e-05
4.771661815e-05
3.104058691e-05
4.353335625e-06
1.172099913e-05
0.0001072217678
4.08462998e-05
2.140736621e-05
9.23651103e-05
5.527685656e-05
2.100785973e-05
9.571625517e-05
0.0001153657146
8.311573354e-05
5.666622728e-05
5.009652513e-05
0.0001185019149
0.0001068150485
0.0001052000946
0.0001220553231
0.0001340878241
0.0001030292435
7.407367102e-05
5.919587186e-05
0.0001401996739
5.110323859e-05
5.744209215e-05
1.741832883e-05
7.274061545e-05
5.43404012e-05
4.540208955e-05
7.957727228e-05
0.0001645458687
8.619220131e-05
1.710254566e-05
2.712076798e-05
4.214593691e-05
5.580642089e-05
2.990283211e-05
4.935431005e-07
1.604797518e-05
6.649761914e-05
6.617157711e-05
5.218224632e-05
2.107166736e-05
8.754642151e-07
2.779655539e-05
7.699480948e-05
3.527137215e-05
3.923908786e-05
1.913624302e-05
9.384012003e-05
5.142376218e-05
0.0001018819575
5.707328671e-05
1.036304334e-05
5.360816822e-05
4.98903849e-05
0.0001015850174
0.000118648017
0.0001474966521
6.86196585e-05
3.712848339e-05
4.517985858e-05
3.108471641e-05
4.507332811e-05
3.867479109e-05
9.531487015e-05
8.88807512e-05
7.289531458e-05
8.224178349e-06
2.917413834e-05
3.968236255e-05
5.653122622e-05
0.0001156958248
9.89599951e-06
2.084468556e-05
7.063265492e-06
1.924623671e-05
8.789731205e-08
1.308750998e-07
1.779242142e-07
1.556636839e-05
6.078343841e-05
7.097991356e-05
8.635055869e-05
1.506256363e-05
2.108302871e-05
3.720073497e-05
2.234789229e-05
3.894545596e-05
5.931150782e-05
5.989778214e-05
7.005159649e-05
1.177360452e-05
8.516297683e-06
1.42219184e-05
2.733754629e-05
8.208598695e-05
5.371553573e-05
6.245585771e-05
0.0001598049233
0.000132092815
0.0001489474382
6.023062945e-05
6.591161444e-05
5.450562107e-05
0.0001572617663
2.713609297e-05
1.027059578e-05
0.0001074986059
0.0001220768515
1.783241614e-05
7.04205448e-05
8.620828504e-05
0.0001673441599
0.0001049500767
6.331061656e-05
1.85472816e-05
3.397850606e-05
4.626069909e-05
5.507592302e-06
3.049880895e-07
3.765900868e-07
2.456398362e-05
8.033167637e-06
2.210088014e-05
1.090777024e-05
4.551055023e-05
5.848893512e-05
6.26600007e-05
1.01168842e-06
2.000272703e-06
8.386423857e-05
0.0001137503261
3.094204853e-06
9.999680126e-06
2.950888354e-05
2.179989213e-05
7.143974345e-05
5.431112063e-05
0.0001165192417
0.0001368539113
8.184754628e-05
0.0001043302746
8.083023997e-05
0.0001313598634
3.409987578e-05
6.884570865e-05
7.019399688e-05
5.719070635e-05
6.087842563e-05
0.0001112622443
1.66042124e-05
5.744589214e-05
7.392910573e-05
0.0001012954704
8.819666798e-05
0.0001031554124
5.255141841e-05
7.791456997e-05
2.242151749e-05
1.072361604e-07
3.926749939e-05
3.718059907e-07
3.6281487e-07
3.763631972e-05
4.297355614e-07
7.202504965e-07
1.407807569e-05
9.093729573e-05
7.061769255e-05
5.664895705e-05
3.349881809e-05
3.377626361e-05
5.222364989e-05
1.235219023e-05
3.731919797e-06
5.460468215e-05
5.249542591e-05
6.584320994e-05
7.511937344e-05
7.743209796e-05
0.0001604580442
0.0001093419055
8.348714672e-05
5.890745018e-06
4.016415168e-06
6.344267143e-05
0.0001143508074
6.280075484e-05
4.794181363e-05
0.0001162547076
0.0001401136251
7.189236168e-05
9.183656947e-05
0.000106561228
0.000150414204
0.0001537573573
0.0001054622912
5.5684584e-05
9.612019503e-05
3.53315142e-05
6.893397014e-06
3.473553589e-08
1.632438895e-05
1.191115344e-07
1.685355651e-05
2.670743907e-07
3.168205783e-07
3.753530009e-05
6.670842486e-05
7.132656637e-05
3.710145505e-05
4.018968303e-05
4.218570089e-05
4.945312531e-05
3.697825055e-05
2.590575773e-05
9.840541899e-06
0.0001388992274
6.433695177e-05
6.944237914e-05
2.557192313e-05
2.142056318e-05
7.461752357e-05
5.25028487e-05
2.536833351e-05
8.833308677e-05
4.373585384e-05
5.301248661e-05
0.0001237372128
5.041675117e-05
5.888707216e-05
4.693043365e-05
0.0001171922823
6.843608529e-05
7.77891979e-05
7.388000984e-05
7.964099074e-05
0.0001739170221
7.900106503e-05
8.902737462e-05
5.574282207e-05
2.687302743e-05
7.499321247e-06
1.483877349e-07
4.41605947e-05
5.960481926e-07
2.77893854e-05
5.575709378e-07
1.249387818e-05
3.092004049e-05
3.869669378e-05
8.306034313e-05
3.72280863e-05
3.191857762e-05
4.801347955e-05
6.554679536e-05
6.543774093e-05
8.275948744e-05
5.38114845e-05
8.425673987e-05
6.346411189e-05
2.010419301e-05
1.033250812e-05
2.921069222e-05
7.273222738e-05
2.58662143e-05
2.918849069e-05
6.026832542e-05
3.937711577e-05
2.718608167e-05
1.956301702e-05
9.88281752e-05
4.445538378e-05
8.796218706e-05
7.171211595e-05
6.377479911e-05
1.193618554e-05
1.521191248e-05
0.0001004737201
0.0001503088482
7.381022261e-05
3.964294296e-05
0.0001008756424
2.759470062e-05
6.272799866e-06
2.590232402e-08
1.078651363e-05
1.946892081e-05
2.233788958e-07
2.887676325e-07
3.776285292e-07
2.198796662e-06
3.022071091e-05
7.791427716e-05
6.961107791e-05
0.0001007152085
5.268955176e-05
6.102645822e-06
4.086198661e-06
1.926999131e-05
1.65558632e-05
8.603431598e-05
9.412267033e-06
5.945186039e-05
6.175834724e-05
4.997727212e-05
3.177347947e-05
2.70232233e-05
2.269469051e-05
1.8295507e-05
6.815890459e-05
1.735991387e-05
6.193947525e-05
0.0001195354037
7.303867053e-05
9.395234243e-05
0.0001144025643
0.0001404856034
8.457568515e-05
2.946660296e-05
4.796346578e-05
7.504344913e-05
0.0001392843286
8.994972308e-05
0.0001151828974
6.153652249e-05
1.828509853e-06
6.923794902e-09
9.694677684e-08
3.072860117e-07
4.27538316e-07
1.844436378e-06
8.072501242e-06
3.577674564e-06
7.133227871e-05
8.542653567e-06
7.034692486e-05
0.0001201041209
5.531352011e-05
2.846436346e-05
2.171761785e-05
1.22820547e-05
4.280508051e-05
9.918859486e-05
0.0001150682777
3.021745501e-05
1.262771532e-05
2.270929316e-05
6.135838297e-06
8.048891137e-05
0.0001094158973
2.506788908e-05
3.086639485e-05
0.0001007052479
9.606191131e-05
0.0001312411711
3.946218972e-05
0.0001230913713
8.477517593e-05
2.39629222e-05
0.0001300302358
0.0001533908358
0.0001133425216
0.0001010182406
0.0001056248436
7.78811659e-05
7.206443962e-05
2.702883242e-05
1.880457052e-05
1.579856627e-07
2.332869096e-07
3.685895086e-07
3.76147202e-07
3.304566381e-05
4.112658428e-07
2.054450469e-06
4.78715797e-05
4.705620227e-05
6.678939059e-05
6.99410107e-05
5.977171902e-06
4.057770392e-05
2.359264945e-05
4.766322229e-06
7.046787603e-05
7.552781701e-06
9.973414995e-05
6.594618695e-05
5.64792509e-05
0.0001266825845
7.307728216e-05
0.0001138070756
5.161755253e-05
7.973011907e-05
0.00016404211
6.477577778e-05
2.245699883e-05
9.56945214e-05
7.181011626e-05
8.895728598e-05
6.266999677e-05
0.0001507818495
0.0001634526793
0.0001371855358
4.749733916e-05
3.190197704e-05
8.55571564e-05
4.000472526e-05
2.965118735e-05
1.169070353e-05
2.993683679e-06
3.388131789e-21
7.76488646e-08
7.918357755e-08
3.178193063e-07
5.042279243e-07
4.97720251e-05
5.322222159e-07
4.406136369e-05
4.393270924e-05
4.372215473e-05
1.732386448e-05
1.97248151e-05
1.394094449e-05
4.156593637e-05
0.0001010094297
2.764551069e-05
4.287710815e-05
5.450983012e-05
2.644159186e-05
9.488313874e-05
5.012110168e-06
1.598223155e-06
9.49032305e-05
0.0001146115404
6.682360566e-05
0.0001832937267
5.628183835e-05
4.228447995e-05
7.893141187e-05
9.443275271e-05
0.0001924958209
0.000169919304
0.0001299542431
0.0001024994446
0.0001327069791
6.908952473e-05
6.089829113e-05
5.298862031e-05
6.539707461e-05
4.042407601e-05
6.460800321e-05
1.4403965e-05
2.262886704e-07
2.93465442e-07
4.152789294e-07
4.332325125e-06
1.341962156e-06
6.324806705e-05
3.146902001e-05
7.151847766e-05
1.218924286e-05
1.476452731e-06
2.260343093e-05
4.956291839e-06
6.54822375e-05
9.206527732e-05
6.040194952e-05
6.513111459e-05
2.658884642e-05
7.582311486e-05
2.06893108e-05
8.359032512e-05
3.595764679e-05
1.020108344e-05
8.481536565e-06
0.0001085546493
4.983180511e-05
1.644317866e-05
2.918757624e-05
2.926099119e-05
2.535617268e-05
9.667076731e-05
7.091225846e-05
9.302920605e-05
8.961165901e-05
0.0001095347514
0.0001401738085
3.539911132e-05
0.000122639321
7.856839588e-05
5.739277413e-05
3.013411189e-05
4.331263993e-05
1.532565264e-05
2.233835766e-07
2.522021446e-07
4.053886779e-07
4.961098811e-07
3.606380172e-05
7.868869196e-06
1.488291859e-06
1.423327529e-06
8.370448169e-07
4.357497626e-06
9.762598387e-06
6.193468719e-05
5.004124201e-05
8.720922264e-05
1.861441513e-05
5.755831718e-05
2.657484436e-05
4.734002498e-05
1.021419324e-05
3.015914847e-05
3.455959692e-05
1.715732123e-05
5.186074881e-05
6.152109206e-05
9.751337884e-05
7.780542607e-05
6.059109015e-05
2.225861425e-05
1.744030953e-05
4.232265243e-05
6.701257143e-05
6.225159743e-06
4.206933871e-06
9.846278468e-05
7.539164842e-05
0.000113056791
0.0001018520803
3.754512293e-05
7.235211449e-05
2.604185647e-05
1.794528742e-06
2.823443158e-22
5.914515332e-08
9.185367631e-08
6.928118145e-08
3.697872793e-05
1.191653015e-05
3.937517431e-05
4.268734434e-05
5.299998894e-07
4.457173274e-05
7.407439166e-05
1.389425079e-05
6.975785216e-05
2.897948012e-05
1.724109174e-06
8.134795152e-06
4.18112427e-06
1.021602604e-06
1.050736258e-05
8.143417076e-06
2.823038859e-05
2.284288897e-05
9.977652719e-05
6.146225266e-05
9.636700383e-05
0.000129126658
5.977094484e-06
1.609940788e-06
5.555675432e-06
2.611706212e-05
2.565370507e-06
2.015611856e-05
1.844245847e-05
9.504315509e-06
3.574199009e-05
2.069989891e-05
7.005124846e-05
0.000155933619
7.994318027e-06
1.561192296e-05
1.807765932e-05
1.812397706e-05
6.035950991e-06
8.859419999e-06
1.74918598e-06
1.806412247e-05
6.225395842e-05
5.448350448e-05
5.021097199e-05
7.76411471e-05
0.0001498962939
0.0001369743464
0.0001052706385
0.0001474174443
0.0001650697585
7.673434532e-05
0.0001355432998
0.0001362783129
0.0001448994033
9.990390306e-05
0.0001047867468
0.0001274807193
0.0001379075409
4.539849435e-05
0.0001075782662
0.0001384815099
0.0001183070775
0.0002042701932
0.0002632341444
0.0001902110125
7.572549259e-05
3.184216165e-05
7.590754358e-05
7.589358162e-05
0.0001086143591
8.10838593e-05
9.651739303e-05
6.606616633e-05
6.650461506e-05
0.0001004924793
5.143136511e-05
9.114662776e-05
4.709270872e-05
4.331907982e-05
2.365843556e-05
5.009838027e-05
7.523889285e-05
8.238169492e-05
0.0001199993354
0.0001330554
0.0001364170778
0.0001311002382
0.0001373729763
0.0001604198781
0.0001106921128
0.000134035102
0.0001542742954
0.0001279973015
0.0001268531311
0.0001626600567
0.0002012639534
0.0001491683449
0.0001661116394
0.0001948426457
0.0001666233425
0.0001860449768
0.0001348216705
0.0001846864738
0.0001659059052
0.0002426526393
0.0001893927987
0.0002586632917