/*--------------------------------*- C++ -*----------------------------------*\
| =========                 |                                                 |
| \\      /  F ield         | OpenFOAM: The Open Source CFD Toolbox           |
|  \\    /   O peration     | Version:  v1706                                 |
|   \\  /    A nd           | Web:      www.OpenFOAM.com                      |
|    \\/     M anipulation  |                                                 |
\*---------------------------------------------------------------------------*/
FoamFile
{
    version     2.0;
    format      ascii;
    class       volScalarField;
    location    "3.996";
    object      rhoM_mixture;
}
// * * * * * * * * * * * * * * * * * * * * * * * * * * * * * * * * * * * * * //

dimensions      [1 -3 0 0 0 0 0];


internalField   nonuniform List<scalar> 
50792
(
1.442048539e-11
2.820616904e-11
5.522767603e-11
3.666979695e-11
4.482303797e-11
6.550663672e-11
7.483484253e-11
6.974503407e-11
8.242077568e-11
7.731520451e-11
9.610114993e-11
8.506424366e-11
1.146821427e-10
1.001798359e-10
1.07473329e-10
1.369353855e-10
1.105421905e-10
1.147071284e-10
1.202720023e-10
1.185753329e-10
1.443044348e-10
1.445576241e-10
1.323775031e-10
1.429313815e-10
1.583725867e-10
1.306868617e-10
1.603828255e-10
1.797322723e-10
1.535406977e-10
1.591935582e-10
1.817955027e-10
1.572277371e-10
1.532037525e-10
1.58414396e-10
1.611556477e-10
1.531940927e-10
1.643531943e-10
1.476802885e-10
1.548357611e-10
1.623346062e-10
1.739648419e-10
1.736456563e-10
2.198113329e-11
1.165099059e-11
1.680330076e-11
2.4459124e-11
4.070384067e-11
4.475281091e-11
4.816534448e-11
6.216793703e-11
5.800639382e-11
7.136648424e-11
7.083791545e-11
7.998359579e-11
8.510335715e-11
9.78768076e-11
1.112698088e-10
1.075160743e-10
9.727188388e-11
1.066784165e-10
1.113009598e-10
1.1402565e-10
1.141740666e-10
1.186774473e-10
1.298160936e-10
1.308242831e-10
1.431035482e-10
1.255140588e-10
1.257103501e-10
1.354808729e-10
1.386975145e-10
1.436341513e-10
1.414401266e-10
1.400662121e-10
1.332809574e-10
1.205162307e-10
1.225819946e-10
1.471755073e-10
1.302972494e-10
1.671165987e-10
1.513465106e-10
1.46181171e-10
1.165523142e-10
1.217383713e-10
1.065735315e-11
1.183818372e-11
2.172790651e-11
3.05571969e-11
3.727208731e-11
4.877889214e-11
7.528709384e-11
5.944684113e-11
6.774556586e-11
8.393691645e-11
8.77042421e-11
7.579413399e-11
1.011406874e-10
9.217437503e-11
9.881350958e-11
9.019286608e-11
1.037510076e-10
1.232333578e-10
1.301294758e-10
1.292053665e-10
1.262558423e-10
1.188221947e-10
1.366612042e-10
1.397759061e-10
1.236738402e-10
1.365987399e-10
1.320494565e-10
1.137592689e-10
1.39747089e-10
1.438030857e-10
1.372558691e-10
1.51344052e-10
1.369068679e-10
1.491332287e-10
1.548328656e-10
1.429029637e-10
1.465064844e-10
1.509172482e-10
1.602869013e-10
1.432315095e-10
1.420190037e-10
1.426224922e-10
1.111659346e-11
1.694928369e-11
2.028975559e-11
2.84926685e-11
3.749576057e-11
3.611021443e-11
4.730589602e-11
4.889749313e-11
5.999949704e-11
7.365171557e-11
9.62898407e-11
9.762635146e-11
1.080938407e-10
8.600264297e-11
9.887707212e-11
1.194422696e-10
1.226837721e-10
1.156889344e-10
1.081948568e-10
1.578285672e-10
1.547423829e-10
1.502775167e-10
1.202682706e-10
1.526410374e-10
1.638269219e-10
1.35714805e-10
1.287350686e-10
1.280192442e-10
1.478190079e-10
1.578136032e-10
1.348943452e-10
1.42015971e-10
1.339068731e-10
1.261492349e-10
1.389823541e-10
1.263989922e-10
1.338721527e-10
1.482354031e-10
1.779680716e-10
1.537933878e-10
1.485231755e-10
1.451067106e-10
1.343704441e-11
2.322065906e-11
2.022489509e-11
3.354647108e-11
3.816035296e-11
4.361612342e-11
6.951976333e-11
5.678022205e-11
7.059188984e-11
7.435548385e-11
7.960354345e-11
7.069835991e-11
8.702912875e-11
8.595953576e-11
1.036735169e-10
1.08878332e-10
1.193086172e-10
1.165398837e-10
1.315650932e-10
1.360484179e-10
1.336867567e-10
1.82230918e-10
1.707267465e-10
1.475853753e-10
1.695531421e-10
1.615709446e-10
1.456106307e-10
1.277211755e-10
1.348476686e-10
1.579608592e-10
1.55239601e-10
1.219320667e-10
1.378868144e-10
1.188449464e-10
1.289814311e-10
1.391876687e-10
1.366981836e-10
1.48312694e-10
1.633035574e-10
1.379115629e-10
1.409740595e-10
1.287921039e-10
3.004435338e-11
1.161814224e-11
2.835604584e-11
2.628305575e-11
3.675081954e-11
3.727925105e-11
4.163481415e-11
5.624666111e-11
6.674643705e-11
6.084188483e-11
6.700162326e-11
9.486398296e-11
7.935514657e-11
9.295793034e-11
8.78093518e-11
9.63637994e-11
9.787880446e-11
1.034416815e-10
1.28821882e-10
1.374036492e-10
1.398801422e-10
1.677484051e-10
1.77744261e-10
1.720412669e-10
1.282981806e-10
1.360446862e-10
1.421036831e-10
1.634351505e-10
1.684084297e-10
1.243071817e-10
1.53863178e-10
1.234849497e-10
1.46868852e-10
1.347554886e-10
1.319954539e-10
1.417726037e-10
1.214250141e-10
1.361261082e-10
1.267127488e-10
1.423576088e-10
1.40842404e-10
1.18100567e-10
2.190011071e-11
1.010583295e-11
1.84419364e-11
2.376774873e-11
2.892399022e-11
3.724630286e-11
6.320201089e-11
6.256593615e-11
6.124095727e-11
6.260435074e-11
7.120523781e-11
7.730261181e-11
9.207806399e-11
8.115379309e-11
7.823075225e-11
8.247104662e-11
1.123590584e-10
1.07545191e-10
1.182130401e-10
1.435964731e-10
1.425547987e-10
1.644642946e-10
1.604099953e-10
1.395430349e-10
1.659458897e-10
1.654853514e-10
1.44816517e-10
1.519725886e-10
1.281937448e-10
1.364869033e-10
1.595138046e-10
1.494899552e-10
1.396784594e-10
1.311880736e-10
1.433411121e-10
1.262911867e-10
1.340054805e-10
1.578369915e-10
1.513168573e-10
1.713526248e-10
1.618699743e-10
1.26987629e-10
1.856223473e-11
1.171778555e-11
1.737890808e-11
2.488481707e-11
3.262739139e-11
4.176963963e-11
5.604623879e-11
5.85693086e-11
6.112772283e-11
7.809143384e-11
7.530218261e-11
7.521603059e-11
8.4421442e-11
9.707209806e-11
1.025291041e-10
1.244561973e-10
1.418798101e-10
1.303066097e-10
1.243350004e-10
1.306692395e-10
1.165194035e-10
1.364858425e-10
1.401231101e-10
1.276385928e-10
1.462553293e-10
1.631385919e-10
1.623109559e-10
1.433660354e-10
1.44239437e-10
1.532188787e-10
1.645010119e-10
1.48750181e-10
1.434465214e-10
1.44214289e-10
1.449675919e-10
1.327075466e-10
1.629617824e-10
1.720156446e-10
1.621637374e-10
1.396294864e-10
1.425698874e-10
1.415325437e-10
2.31964721e-11
1.805515714e-11
3.18198488e-11
3.530700253e-11
4.788733168e-11
5.271642513e-11
5.362714296e-11
7.217299096e-11
7.525490695e-11
7.918621223e-11
8.021972447e-11
9.092938286e-11
8.506857435e-11
1.008530523e-10
1.025044179e-10
1.118083369e-10
1.134909159e-10
1.032892712e-10
1.171576373e-10
1.290194089e-10
1.135768683e-10
1.495250126e-10
1.090691944e-10
1.168049419e-10
1.348161182e-10
1.487916533e-10
1.258795216e-10
1.380318613e-10
1.303036144e-10
1.544404577e-10
1.714578843e-10
1.554212029e-10
1.621018098e-10
1.411424322e-10
1.566629253e-10
1.372380845e-10
1.773467237e-10
1.893135052e-10
1.582952333e-10
1.684223828e-10
1.555026873e-10
1.242134666e-10
3.038792559e-11
1.063993054e-11
2.423818394e-11
2.34809123e-11
5.078448822e-11
5.438481398e-11
5.560152562e-11
6.500468856e-11
7.596883426e-11
8.321249315e-11
8.453467644e-11
1.044055033e-10
9.102579375e-11
9.424716544e-11
9.956281874e-11
1.049184092e-10
9.670916879e-11
1.100499645e-10
1.379036629e-10
1.349721603e-10
1.575363268e-10
1.272673017e-10
1.407721021e-10
1.268439425e-10
1.308682889e-10
1.20430478e-10
1.411919668e-10
1.445871402e-10
1.535292032e-10
1.763644559e-10
1.365973047e-10
1.465067839e-10
1.168842547e-10
1.533933169e-10
1.273278315e-10
1.413718964e-10
1.578167982e-10
1.637831158e-10
1.459073266e-10
1.640854778e-10
1.577281876e-10
1.319406151e-10
3.001463761e-11
1.135355832e-11
2.244033617e-11
3.006490855e-11
5.110950211e-11
5.955241261e-11
5.105350267e-11
6.92119349e-11
9.131336652e-11
8.487531576e-11
9.159786912e-11
8.136104217e-11
9.078683203e-11
8.50350271e-11
1.106174846e-10
1.067844872e-10
1.107818886e-10
1.085627782e-10
1.063907439e-10
1.197139174e-10
1.158552728e-10
1.539490305e-10
1.439630965e-10
1.309860912e-10
1.21405657e-10
1.252011384e-10
1.279699343e-10
1.440850922e-10
1.393819631e-10
1.464537174e-10
1.428462279e-10
1.280145766e-10
1.519157155e-10
1.42187002e-10
1.551037771e-10
1.354476251e-10
1.565488172e-10
1.593392041e-10
1.695294918e-10
1.465616851e-10
1.525714094e-10
1.30795129e-10
2.288101817e-11
2.00016212e-11
2.439232904e-11
3.184956457e-11
4.028834406e-11
6.115097377e-11
5.045454457e-11
7.142094859e-11
8.623960782e-11
8.099904893e-11
9.036546965e-11
1.199590818e-10
1.088549812e-10
1.114529458e-10
1.014101387e-10
1.019390694e-10
1.129392959e-10
1.210485311e-10
1.492061889e-10
1.467229315e-10
1.370592158e-10
1.389651311e-10
1.335426084e-10
1.283838708e-10
1.227933747e-10
1.334890426e-10
1.409939158e-10
1.381664247e-10
1.53260688e-10
1.382760273e-10
1.578966601e-10
1.449966462e-10
1.519842827e-10
1.193306077e-10
1.140051947e-10
1.230783142e-10
1.273791758e-10
1.419456441e-10
1.387476232e-10
1.434751763e-10
1.332925516e-10
1.145240662e-10
3.875531734e-11
1.620917256e-11
1.990327585e-11
2.83754029e-11
4.045398358e-11
5.691351244e-11
7.014627809e-11
6.337924467e-11
7.624964267e-11
8.166100796e-11
7.161037571e-11
1.069073815e-10
1.01210615e-10
9.834650647e-11
9.009838965e-11
8.889043923e-11
1.078079403e-10
1.092983964e-10
1.355399799e-10
1.581626793e-10
1.324733524e-10
1.236352009e-10
1.555424997e-10
1.3509956e-10
1.408120517e-10
1.299891589e-10
1.41098027e-10
1.600766569e-10
1.766551487e-10
1.68722386e-10
1.487491202e-10
1.513312222e-10
1.728031438e-10
1.69343372e-10
1.640340836e-10
1.671768664e-10
1.6403165e-10
1.380521544e-10
1.328037952e-10
1.390062789e-10
1.325526027e-10
1.110836515e-10
4.597672373e-11
3.287245601e-11
2.736807449e-11
3.398705323e-11
4.720565366e-11
5.310817158e-11
5.470856736e-11
8.430700946e-11
7.957123176e-11
7.423608412e-11
7.471418228e-11
9.164171268e-11
6.827030318e-11
1.024618723e-10
9.794007061e-11
9.926602297e-11
9.700237021e-11
1.119102142e-10
1.155654786e-10
1.052639534e-10
1.103561955e-10
1.288004657e-10
1.466787635e-10
1.629806403e-10
1.564681316e-10
1.580285527e-10
1.663690867e-10
1.743583855e-10
1.75990132e-10
1.374098519e-10
1.455170528e-10
1.643790537e-10
1.591584509e-10
1.365843501e-10
1.410610477e-10
1.86434907e-10
1.736540931e-10
1.535439051e-10
1.597755679e-10
1.466855902e-10
1.478786765e-10
1.210137483e-10
6.60449402e-11
1.341175917e-11
2.54980028e-11
3.37428248e-11
3.86666318e-11
4.839011602e-11
6.581466482e-11
7.482585666e-11
7.205931971e-11
8.313883399e-11
7.84294398e-11
8.105375041e-11
7.595091244e-11
9.128484887e-11
1.004772308e-10
1.015457255e-10
8.947983736e-11
1.118540775e-10
1.272392833e-10
1.197712522e-10
1.010528381e-10
1.206349315e-10
1.364084517e-10
1.547640738e-10
1.4210402e-10
1.537450513e-10
1.189091454e-10
1.35472848e-10
1.513232223e-10
1.74285625e-10
1.60760831e-10
1.512822118e-10
1.556752285e-10
1.476408505e-10
1.750377422e-10
1.486411775e-10
1.566492343e-10
1.613911773e-10
1.538880015e-10
1.264666608e-10
1.355109256e-10
1.105797689e-10
3.18539951e-11
1.008004849e-11
1.603203862e-11
2.344776442e-11
4.08734115e-11
4.480994606e-11
4.671669757e-11
6.364935741e-11
6.80051202e-11
8.121859119e-11
8.235851109e-11
7.777314686e-11
8.279799498e-11
1.029447005e-10
9.658174417e-11
1.143823142e-10
1.340649744e-10
1.27797468e-10
1.221777553e-10
1.541306324e-10
1.361668192e-10
1.475290763e-10
1.219676108e-10
1.412254891e-10
1.340855671e-10
1.349073997e-10
1.672297957e-10
1.652482867e-10
1.409992449e-10
1.562278719e-10
1.326337876e-10
1.218349819e-10
1.375845147e-10
1.251705615e-10
1.514401509e-10
1.21877827e-10
1.463950846e-10
1.199447544e-10
1.264017628e-10
1.337068501e-10
1.332678654e-10
1.316651733e-10
2.234109224e-11
1.156040804e-11
1.701921123e-11
2.392412781e-11
3.677327173e-11
3.989340263e-11
5.382756529e-11
7.037917435e-11
7.001698142e-11
8.888624582e-11
6.400655819e-11
7.7636025e-11
1.015246711e-10
8.892915335e-11
1.090151294e-10
1.016865166e-10
9.767252884e-11
1.145035111e-10
1.557944535e-10
1.266606807e-10
1.080890482e-10
1.148099042e-10
1.213761784e-10
1.417870685e-10
1.435276812e-10
1.210480319e-10
1.618782364e-10
1.437142753e-10
1.616448034e-10
1.477458854e-10
1.432160214e-10
1.448271752e-10
1.598938944e-10
1.702035443e-10
1.839490411e-10
1.778971456e-10
1.804947357e-10
1.671003368e-10
1.667993102e-10
1.861129882e-10
1.527969547e-10
1.194662943e-10
4.60699646e-11
1.357889634e-11
1.841918468e-11
2.310632636e-11
3.211354944e-11
3.820489541e-11
4.899240638e-11
5.28757371e-11
7.654607651e-11
7.642374388e-11
7.592069746e-11
7.958428623e-11
8.328928489e-11
8.528005428e-11
9.386581514e-11
1.167992758e-10
1.070356797e-10
1.209393278e-10
1.494435532e-10
1.459108211e-10
1.195315542e-10
1.248718936e-10
1.174603987e-10
1.464340608e-10
1.285429831e-10
1.371823097e-10
1.289365267e-10
1.047558399e-10
1.170575322e-10
1.117236201e-10
1.327172438e-10
1.336619083e-10
1.223252359e-10
1.288662248e-10
1.46729958e-10
1.716510555e-10
1.831352084e-10
1.392626258e-10
1.507820233e-10
1.595336359e-10
1.412107248e-10
1.134867849e-10
2.909719284e-11
1.082159487e-11
2.185193646e-11
2.679579943e-11
3.374785439e-11
4.851534409e-11
6.893489557e-11
5.640733344e-11
6.816732761e-11
7.887688616e-11
9.699734062e-11
8.856139417e-11
1.048750774e-10
1.12429223e-10
1.218520051e-10
1.147462044e-10
1.217633944e-10
1.313938e-10
1.330915677e-10
1.356025066e-10
1.290066165e-10
1.30404356e-10
1.380892335e-10
1.777434373e-10
1.450005775e-10
1.375656569e-10
1.726015483e-10
1.564856915e-10
1.573589307e-10
1.675382232e-10
1.599425678e-10
1.751513386e-10
1.409621657e-10
1.38787498e-10
1.481265992e-10
1.500622677e-10
1.652291294e-10
1.451343297e-10
1.284635206e-10
1.34341889e-10
1.356493454e-10
1.149133416e-10
4.122440954e-11
1.147295806e-11
2.014367281e-11
3.521292547e-11
4.745824394e-11
5.163397734e-11
6.350077856e-11
6.079947652e-11
6.651087e-11
9.912516947e-11
1.065230359e-10
8.766336887e-11
9.807539531e-11
1.09307557e-10
1.067166938e-10
1.26280828e-10
1.247271088e-10
1.383671715e-10
1.050028015e-10
1.482279148e-10
1.379157938e-10
1.370097062e-10
1.48715236e-10
1.790690153e-10
1.497075006e-10
1.480307499e-10
1.597069259e-10
1.58129494e-10
1.309073026e-10
1.365652925e-10
1.355179895e-10
1.201183564e-10
1.318006977e-10
1.467011408e-10
1.261907447e-10
1.139040163e-10
1.341026901e-10
1.367661142e-10
1.430680041e-10
1.309198953e-10
1.282830918e-10
1.232883588e-10
6.802687349e-11
1.424971643e-11
2.961386784e-11
3.619746472e-11
5.676020353e-11
5.348872314e-11
6.195348677e-11
7.413121153e-11
8.826939086e-11
9.166053308e-11
9.171756839e-11
1.207197481e-10
1.038905631e-10
1.603239431e-10
1.181623323e-10
1.32764819e-10
1.706638454e-10
1.564630396e-10
1.491250041e-10
1.608705086e-10
1.803324285e-10
1.551657422e-10
1.444573193e-10
1.399989429e-10
1.54263823e-10
1.471163753e-10
1.623668555e-10
1.509193823e-10
1.609881735e-10
1.349949869e-10
1.437643466e-10
1.344370019e-10
1.391060845e-10
1.258512036e-10
1.225886217e-10
1.390963248e-10
1.208032668e-10
1.38852995e-10
1.156134781e-10
1.037117318e-10
1.227543985e-10
1.122573183e-10
4.132688589e-11
9.951887535e-12
3.266107592e-11
2.838466334e-11
3.985219244e-11
4.779115792e-11
5.632734673e-11
5.560432123e-11
6.037368361e-11
7.153098805e-11
8.157878726e-11
9.324899762e-11
1.054107974e-10
1.108949857e-10
1.453445741e-10
1.28141502e-10
1.300299323e-10
1.502056547e-10
1.255823888e-10
1.386116994e-10
1.401098435e-10
1.37842197e-10
1.64123855e-10
1.768549096e-10
1.337782379e-10
1.437274296e-10
1.504972212e-10
1.420376245e-10
1.304683554e-10
1.404374284e-10
1.543076291e-10
1.45513421e-10
1.558434639e-10
1.714441808e-10
1.299785007e-10
1.557897234e-10
1.308237839e-10
1.379688603e-10
1.078196344e-10
1.230417966e-10
1.137104582e-10
9.420555587e-11
1.414330876e-11
9.359856041e-12
1.964342199e-11
2.113920727e-11
3.744692487e-11
4.083483467e-11
4.351628043e-11
6.040030424e-11
6.163653519e-11
7.404749319e-11
8.099022531e-11
7.275745935e-11
8.182151805e-11
1.043802181e-10
9.20255965e-11
1.133725146e-10
1.148932856e-10
1.297508587e-10
1.247357702e-10
1.076066194e-10
1.198583028e-10
1.360227707e-10
1.563411438e-10
1.433573117e-10
1.779776315e-10
1.354076505e-10
1.423446791e-10
1.474321288e-10
1.325416075e-10
1.472161809e-10
1.668291258e-10
2.016232224e-10
1.891205836e-10
1.627592384e-10
1.822062068e-10
1.504296275e-10
1.776107086e-10
1.727515624e-10
1.58662693e-10
1.368001233e-10
1.284322073e-10
1.185966868e-10
4.368455331e-11
2.46334249e-11
2.224811345e-11
3.43082731e-11
4.242319937e-11
4.052864118e-11
5.011983343e-11
5.47909503e-11
6.944873752e-11
7.993055421e-11
9.647280299e-11
9.300480663e-11
1.033736884e-10
1.039934388e-10
1.091605757e-10
1.008009467e-10
1.175393495e-10
1.428990698e-10
1.312074306e-10
1.076156177e-10
1.089100821e-10
1.176360974e-10
1.306096706e-10
1.187021584e-10
1.582447253e-10
1.474409274e-10
1.49241471e-10
1.160065225e-10
1.150786816e-10
1.122413934e-10
1.239687389e-10
1.506080969e-10
1.607629028e-10
1.528809102e-10
1.324701824e-10
1.289112665e-10
1.444029798e-10
1.715849594e-10
1.476969124e-10
1.484864957e-10
1.359836572e-10
1.127920774e-10
5.389226355e-11
1.227163958e-11
1.908990493e-11
2.542897385e-11
3.087871629e-11
3.715835367e-11
4.989202916e-11
5.711846514e-11
6.935825481e-11
8.220233169e-11
9.079878823e-11
9.470024045e-11
1.073358077e-10
1.057291218e-10
1.217228457e-10
1.287471246e-10
1.245466801e-10
1.334817416e-10
1.161140284e-10
1.419097256e-10
1.112018157e-10
1.255777961e-10
1.256955609e-10
1.303737042e-10
1.390803999e-10
1.531352602e-10
1.412493391e-10
1.36049254e-10
1.367521237e-10
1.263083098e-10
1.409002381e-10
1.535177088e-10
1.470682635e-10
1.601550462e-10
1.431509237e-10
1.40759447e-10
1.243932963e-10
1.3829974e-10
1.200637547e-10
1.190219805e-10
1.271439707e-10
1.122266665e-10
5.582373868e-11
1.155054854e-11
2.001178022e-11
2.373410164e-11
3.278293429e-11
4.512296631e-11
6.452089935e-11
5.873361272e-11
6.298823456e-11
7.151322848e-11
6.697340513e-11
7.922862054e-11
1.054943535e-10
1.242063403e-10
1.304751821e-10
1.288022629e-10
1.316496227e-10
1.192854287e-10
1.048022794e-10
1.159615807e-10
1.080039321e-10
9.964170719e-11
1.360615472e-10
1.295323148e-10
1.270913659e-10
1.4211358e-10
1.683510949e-10
1.759396239e-10
1.563011941e-10
1.556746169e-10
1.602929668e-10
1.280367292e-10
1.573467998e-10
1.464902599e-10
1.662272348e-10
1.518774757e-10
1.160812799e-10
1.307753101e-10
1.432405702e-10
1.421932672e-10
1.252114347e-10
1.496456354e-10
1.906775227e-11
1.086350396e-11
3.092202319e-11
4.122161393e-11
3.558711204e-11
4.680757965e-11
4.980004881e-11
5.561601534e-11
6.353189213e-11
6.908147756e-11
8.494518089e-11
9.467215961e-11
9.732309085e-11
1.18566372e-10
1.160425034e-10
1.147048944e-10
1.449769522e-10
1.435680178e-10
1.275157236e-10
1.462841091e-10
1.426847194e-10
1.132763034e-10
1.181729906e-10
1.221112225e-10
1.428248365e-10
1.269913232e-10
1.499133519e-10
1.46479065e-10
1.677260778e-10
1.517347252e-10
1.684367477e-10
1.628125047e-10
1.579645908e-10
1.632426283e-10
1.497640741e-10
1.487965581e-10
1.377921632e-10
1.379438497e-10
1.204573608e-10
1.250313679e-10
1.123843436e-10
1.32400754e-10
3.110691992e-11
1.595474766e-11
1.963062961e-11
4.316967549e-11
4.665886352e-11
6.309753768e-11
5.67216891e-11
5.739683988e-11
6.667690889e-11
7.196937366e-11
8.823384676e-11
9.889796427e-11
8.975988447e-11
1.185401881e-10
1.138753988e-10
1.162220336e-10
1.266307278e-10
1.265188911e-10
1.24602979e-10
1.30422777e-10
1.544752655e-10
1.326787668e-10
1.336712062e-10
1.213401975e-10
1.408813802e-10
1.375632981e-10
1.709546257e-10
1.717705925e-10
1.786230042e-10
1.741956165e-10
1.600579988e-10
1.656453623e-10
1.570971424e-10
1.777017279e-10
1.746055094e-10
1.622420642e-10
1.692940246e-10
1.466379776e-10
1.609082492e-10
1.445679204e-10
1.304277068e-10
1.237416335e-10
4.89779541e-11
1.926077373e-11
4.290076087e-11
4.430496517e-11
3.620029777e-11
4.030810049e-11
5.690062022e-11
6.14551704e-11
7.422532603e-11
7.570155457e-11
8.199831502e-11
9.522477808e-11
1.09105375e-10
1.018768049e-10
1.087293164e-10
1.058353298e-10
1.142902964e-10
1.411822696e-10
1.203068849e-10
1.401171445e-10
1.345606949e-10
1.168409478e-10
1.218693279e-10
1.488609194e-10
1.529247787e-10
1.436668998e-10
1.61722057e-10
1.433541791e-10
1.680575939e-10
1.669583476e-10
1.394962959e-10
1.472168548e-10
1.508839006e-10
1.303731051e-10
1.31920659e-10
1.659906319e-10
1.517211964e-10
1.517298578e-10
1.589530614e-10
1.665860705e-10
1.579866436e-10
1.504992555e-10
2.773453571e-11
2.329082372e-11
3.604838666e-11
4.197818668e-11
4.12109557e-11
4.916864174e-11
6.022047454e-11
7.380166726e-11
7.862772798e-11
6.887905837e-11
8.066886816e-11
9.040031485e-11
1.117785213e-10
1.134706603e-10
1.255317185e-10
1.11455005e-10
1.297935041e-10
1.274304077e-10
1.556197158e-10
1.249760673e-10
1.344003845e-10
1.335481372e-10
1.337438919e-10
1.924071777e-10
1.568228363e-10
1.594212002e-10
1.371053183e-10
1.331810769e-10
1.15849744e-10
1.111448802e-10
1.239396222e-10
1.152969259e-10
1.097473779e-10
1.33158762e-10
1.214795533e-10
1.298857465e-10
1.387175704e-10
1.503487048e-10
1.40690418e-10
1.449505063e-10
1.087183211e-10
1.110846125e-10
2.788225341e-11
1.940022943e-11
2.106425015e-11
2.374166475e-11
3.157572021e-11
4.405610652e-11
6.674370385e-11
5.804147615e-11
8.239652631e-11
7.998305914e-11
7.157996104e-11
8.180499403e-11
8.467796361e-11
1.108836286e-10
1.059087519e-10
1.032844413e-10
1.206605163e-10
9.335057538e-11
1.181227196e-10
1.117091928e-10
1.450118972e-10
1.264665235e-10
1.356615387e-10
1.186360998e-10
1.485073254e-10
1.257311799e-10
1.382786607e-10
1.243855709e-10
1.410986885e-10
1.252516465e-10
1.512345118e-10
1.358500298e-10
1.311862764e-10
1.32855102e-10
1.373088108e-10
1.378635884e-10
1.308400084e-10
1.382962455e-10
1.766217762e-10
1.450121718e-10
1.543586988e-10
1.295268859e-10
4.232522843e-11
2.732416854e-11
1.908667251e-11
2.415626277e-11
3.142680439e-11
4.719799071e-11
5.6483289e-11
6.377821727e-11
6.112618775e-11
6.271991901e-11
7.940685276e-11
7.941048455e-11
7.794258042e-11
7.769242381e-11
1.045114118e-10
1.181717301e-10
1.116542542e-10
1.130795129e-10
1.153497927e-10
1.370785978e-10
1.675598392e-10
1.462717161e-10
1.49686284e-10
1.55276181e-10
1.568979557e-10
1.418073865e-10
1.295470417e-10
1.42963768e-10
1.477063351e-10
1.4238066e-10
1.528802363e-10
1.644246195e-10
1.434038135e-10
1.484959933e-10
1.242439811e-10
1.398910376e-10
1.492864752e-10
1.513023676e-10
1.272872578e-10
1.461627499e-10
1.223447927e-10
1.228818231e-10
2.34055558e-11
2.02854249e-11
2.837340604e-11
2.805641703e-11
3.743319646e-11
4.05401356e-11
4.504731029e-11
5.398007546e-11
8.285086184e-11
9.912213674e-11
9.123054676e-11
9.976330347e-11
1.02229937e-10
1.061089371e-10
1.386355494e-10
1.138402166e-10
1.271595586e-10
1.418646839e-10
1.198533731e-10
1.448759111e-10
1.615173039e-10
1.653764477e-10
1.755682704e-10
1.847832044e-10
1.573973079e-10
1.528841301e-10
1.244138514e-10
1.240919701e-10
1.361680547e-10
1.391297722e-10
1.498799045e-10
1.593427735e-10
1.547615403e-10
1.64241158e-10
1.374820758e-10
1.435977086e-10
1.447279063e-10
1.514426594e-10
1.51996476e-10
1.556805825e-10
1.486387812e-10
1.293646161e-10
1.65557775e-11
1.0847579e-11
2.17963364e-11
2.579066756e-11
3.173339725e-11
3.966326454e-11
6.004943101e-11
6.780190227e-11
8.6170816e-11
7.822039354e-11
9.491405421e-11
9.286062087e-11
9.23623045e-11
1.074173295e-10
1.230247734e-10
1.181213218e-10
1.24695858e-10
1.470506162e-10
1.172141734e-10
1.332313853e-10
1.383114341e-10
1.31953108e-10
1.506315475e-10
1.371115835e-10
1.278105599e-10
1.49590572e-10
1.563405073e-10
1.405182513e-10
1.543839216e-10
1.247555266e-10
1.262307567e-10
1.330494215e-10
1.531404271e-10
1.344200785e-10
1.528657466e-10
1.401766135e-10
1.317450976e-10
1.638890367e-10
1.448904757e-10
1.477899286e-10
1.385645611e-10
1.290155774e-10
1.557682946e-11
1.142711764e-11
2.867536869e-11
3.693921078e-11
5.863436879e-11
5.012466333e-11
6.215580611e-11
7.388981614e-11
6.580690203e-11
8.847867425e-11
8.851028704e-11
7.166328001e-11
8.074102968e-11
8.5603271e-11
9.875890794e-11
9.95159799e-11
9.252227793e-11
1.177933751e-10
1.007327539e-10
9.814328854e-11
1.044309882e-10
1.350170023e-10
1.174314817e-10
1.441220341e-10
1.348026893e-10
1.243554183e-10
1.287381637e-10
1.302551032e-10
1.170494949e-10
1.370231351e-10
1.119164419e-10
1.299826941e-10
1.349207911e-10
1.435223771e-10
1.274835741e-10
1.412844464e-10
1.51359303e-10
1.649042902e-10
1.593052575e-10
1.260575541e-10
1.270301746e-10
1.353462845e-10
2.702993124e-11
1.066511594e-11
1.928645834e-11
2.753018207e-11
3.430803597e-11
4.048803004e-11
5.450257879e-11
6.797820003e-11
7.678513807e-11
9.032356055e-11
1.013867505e-10
1.057698328e-10
1.054493119e-10
1.150298084e-10
1.004618425e-10
1.060736925e-10
1.023260858e-10
1.320453255e-10
1.326500121e-10
1.395989719e-10
1.220239098e-10
1.345938428e-10
1.335460031e-10
1.382300122e-10
1.310835005e-10
1.305367104e-10
1.400937563e-10
1.201412079e-10
1.55716526e-10
1.31830351e-10
1.329694347e-10
1.307468299e-10
1.206394993e-10
1.404379026e-10
1.473145636e-10
1.440387526e-10
1.507505104e-10
1.535508567e-10
1.677250544e-10
1.709400611e-10
1.628430566e-10
1.427220357e-10
3.349053404e-11
1.127043903e-11
2.05831567e-11
2.986252681e-11
3.6286949e-11
4.429933652e-11
6.185334425e-11
6.832410607e-11
7.249057903e-11
9.466569478e-11
9.924313397e-11
1.124499779e-10
1.196619491e-10
1.078895619e-10
1.115746045e-10
1.155796313e-10
1.121335879e-10
1.339020057e-10
1.395501362e-10
1.219304942e-10
1.164498378e-10
1.30488274e-10
1.338923085e-10
1.422581651e-10
1.491731783e-10
1.430850273e-10
1.435450664e-10
1.43458852e-10
1.466206923e-10
1.749594154e-10
1.371481634e-10
1.542008595e-10
1.438950036e-10
1.388602586e-10
1.699363644e-10
1.785097697e-10
1.477881314e-10
1.499004971e-10
1.434710453e-10
1.552673823e-10
1.438352351e-10
1.230520929e-10
4.525190106e-11
1.410463208e-11
2.083201535e-11
3.663291745e-11
3.938538901e-11
4.519492815e-11
4.775414113e-11
6.056650538e-11
7.112604984e-11
7.020517298e-11
8.58801481e-11
7.87919697e-11
7.464192091e-11
9.537126023e-11
8.619426663e-11
1.141961444e-10
1.083469676e-10
9.771196682e-11
1.138598108e-10
1.1468384e-10
1.030269212e-10
1.229011178e-10
1.336948565e-10
1.438026239e-10
1.238676978e-10
1.323380277e-10
1.434421657e-10
1.317604859e-10
1.277521268e-10
1.631267605e-10
1.400720405e-10
1.574315915e-10
1.538684447e-10
1.561547868e-10
1.508800816e-10
1.812674706e-10
1.410881925e-10
1.37685456e-10
1.363096071e-10
1.527692982e-10
1.350786678e-10
1.28750357e-10
2.766053957e-11
1.31484732e-11
2.181122548e-11
3.523767405e-11
4.73118242e-11
5.302684946e-11
6.413278469e-11
6.587196222e-11
7.60463249e-11
8.249633186e-11
8.581654811e-11
9.764716872e-11
8.458857917e-11
9.421695045e-11
9.96735571e-11
1.31521624e-10
1.040349485e-10
1.137587323e-10
1.295473412e-10
1.1982669e-10
1.628514809e-10
1.318348065e-10
1.138060703e-10
1.253904033e-10
1.508152461e-10
1.338594976e-10
1.48007811e-10
1.311530661e-10
1.136488301e-10
1.342982826e-10
1.607425473e-10
1.69266418e-10
1.631745728e-10
1.590188579e-10
1.407815372e-10
1.35200339e-10
1.215482827e-10
1.201605026e-10
1.298196879e-10
1.327296368e-10
1.330322984e-10
1.461572211e-10
4.520708403e-11
2.639982213e-11
3.066077152e-11
4.461708684e-11
4.450032046e-11
4.790668874e-11
7.481322652e-11
6.035153094e-11
7.096831039e-11
6.598603284e-11
7.796636801e-11
1.071684334e-10
9.475787482e-11
9.881574356e-11
1.135158392e-10
1.298708575e-10
1.096965703e-10
1.106611534e-10
1.324000551e-10
1.327434901e-10
1.248707954e-10
1.037114323e-10
1.026188504e-10
1.172476832e-10
1.293990619e-10
1.329973159e-10
1.244521287e-10
1.109048826e-10
1.089105813e-10
1.150660889e-10
1.374585878e-10
1.39929552e-10
1.665731034e-10
1.492353431e-10
1.438663237e-10
1.416521806e-10
1.151425811e-10
1.207996101e-10
1.205278624e-10
1.214834846e-10
1.117928488e-10
1.272132991e-10
3.545208688e-11
1.371885125e-11
2.42763614e-11
3.209742479e-11
3.999354515e-11
6.353532423e-11
5.623303254e-11
5.127164713e-11
5.754745303e-11
6.326367641e-11
7.822672109e-11
8.191106473e-11
9.886651373e-11
8.361280114e-11
1.075485232e-10
1.122292625e-10
9.608169303e-11
1.253771366e-10
1.240631155e-10
1.484265899e-10
1.13136648e-10
1.080091239e-10
1.122957579e-10
1.241534984e-10
1.306033056e-10
1.345874154e-10
1.621965483e-10
1.45480398e-10
1.216504845e-10
1.256918916e-10
1.335002625e-10
1.494866604e-10
1.307160409e-10
1.316908205e-10
1.33393393e-10
1.505216079e-10
1.402708279e-10
1.201283532e-10
1.022498931e-10
1.289913905e-10
1.132378264e-10
1.175787625e-10
1.385333976e-11
1.620290741e-11
3.582194276e-11
4.663667341e-11
5.47178902e-11
6.291403874e-11
5.907738462e-11
7.530084721e-11
6.571388581e-11
9.311590691e-11
8.722308624e-11
9.411577206e-11
1.02000735e-10
1.076443975e-10
1.050007298e-10
1.033718538e-10
1.046732822e-10
1.201222503e-10
1.188937821e-10
1.30766212e-10
1.384002819e-10
1.178909841e-10
1.365307469e-10
1.407940925e-10
1.463863234e-10
1.658893287e-10
1.541590752e-10
1.507016373e-10
1.426638647e-10
1.47993808e-10
1.461367284e-10
1.565476565e-10
1.574806269e-10
1.580198539e-10
1.549685523e-10
1.665107015e-10
1.677488669e-10
1.798935187e-10
1.602242998e-10
1.592318979e-10
1.572494903e-10
1.601471461e-10
9.478543148e-11
9.196287014e-11
7.497663206e-11
1.069560924e-10
1.237235495e-10
1.053898429e-10
1.176206342e-10
1.158883209e-10
1.607968494e-10
1.517001171e-10
1.429361115e-10
1.927747372e-10
1.833469629e-10
1.782054982e-10
1.724520334e-10
1.71813862e-10
1.737963069e-10
1.803785684e-10
1.707391395e-10
1.665490537e-10
2.295310855e-10
2.128354529e-10
1.957237996e-10
2.015215822e-10
1.952349808e-10
2.152945733e-10
2.560380641e-10
2.686688514e-10
2.25613309e-10
1.874892739e-10
2.073305847e-10
2.146977369e-10
2.160859164e-10
2.059642583e-10
2.03517481e-10
2.210941406e-10
2.129786777e-10
2.557617736e-10
2.595273021e-10
2.56470871e-10
2.868193836e-10
2.140745918e-10
1.049619533e-10
1.166619168e-10
1.216961377e-10
1.237598923e-10
1.218388882e-10
1.917188476e-10
1.745999557e-10
2.714563429e-10
2.003419872e-10
2.433831523e-10
1.847843026e-10
2.410682052e-10
2.839240991e-10
2.087466079e-10
2.017429466e-10
2.285707332e-10
2.414256431e-10
2.536164847e-10
2.131579458e-10
2.771772964e-10
2.763501596e-10
2.694374178e-10
2.694728246e-10
2.382384177e-10
2.39192742e-10
2.937183845e-10