/*--------------------------------*- C++ -*----------------------------------*\
| =========                 |                                                 |
| \\      /  F ield         | OpenFOAM: The Open Source CFD Toolbox           |
|  \\    /   O peration     | Version:  v1706                                 |
|   \\  /    A nd           | Web:      www.OpenFOAM.com                      |
|    \\/     M anipulation  |                                                 |
\*---------------------------------------------------------------------------*/
FoamFile
{
    version     2.0;
    format      ascii;
    class       volScalarField;
    location    "3.996";
    object      rhoM_N2;
}
// * * * * * * * * * * * * * * * * * * * * * * * * * * * * * * * * * * * * * //

dimensions      [1 -3 0 0 0 0 0];


internalField   nonuniform List<scalar> 
50792
(
1.233216939e-11
1.305759112e-11
2.698568832e-11
2.881375107e-11
3.580681654e-11
5.350710673e-11
6.598436047e-11
5.260758379e-11
6.415629771e-11
6.229921808e-11
7.051099206e-11
6.39821965e-11
8.388776874e-11
7.399301636e-11
8.586091584e-11
9.987606364e-11
8.246594215e-11
8.417793743e-11
9.421777416e-11
8.960409196e-11
1.140072789e-10
1.150228693e-10
9.975999617e-11
1.103801703e-10
1.260202628e-10
9.952786121e-11
9.862833827e-11
1.357118971e-10
1.150228693e-10
1.176924213e-10
1.351895934e-10
1.231185758e-10
1.215806818e-10
1.268907688e-10
1.132238235e-10
1.183888262e-10
1.296473714e-10
1.114828113e-10
1.203619733e-10
1.279934099e-10
1.364083019e-10
1.360891164e-10
9.517533084e-12
8.501942664e-12
1.305759112e-11
1.958638668e-11
3.447204056e-11
3.630010332e-11
3.235380911e-11
3.644518766e-11
4.262578079e-11
4.610780509e-11
5.028623425e-11
5.263660065e-11
5.858505883e-11
7.57340285e-11
8.829833285e-11
7.927408654e-11
7.579206224e-11
7.770717561e-11
8.365563379e-11
7.965130584e-11
7.791029369e-11
7.654650084e-11
8.841440033e-11
1.01123789e-10
1.156902573e-10
1.05128117e-10
9.909260818e-11
1.091614618e-10
1.121792162e-10
1.066079773e-10
1.113087101e-10
9.604583692e-11
1.001662323e-10
9.366645364e-11
8.940097388e-11
1.131657897e-10
9.923769252e-11
1.19317366e-10
1.097127823e-10
1.133979247e-10
8.728274243e-11
9.323120061e-11
1.035902229e-11
1.021393794e-11
1.804849262e-11
2.657945215e-11
3.22667585e-11
4.27128314e-11
4.813898593e-11
4.880637393e-11
5.687306355e-11
6.328579164e-11
7.500860678e-11
6.13416614e-11
8.26110265e-11
7.341267897e-11
7.637239963e-11
7.126543065e-11
8.243692528e-11
9.134510411e-11
1.041415434e-10
1.038803916e-10
9.572665136e-11
8.554173028e-11
1.078557027e-10
1.050700832e-10
9.430482477e-11
1.071302809e-10
9.810603463e-11
7.68656864e-11
1.055053363e-10
1.140362958e-10
1.032130036e-10
9.43628585e-11
1.010077215e-10
1.178084888e-10
1.136300596e-10
1.117439631e-10
1.183307924e-10
1.232056264e-10
1.260782965e-10
1.145585994e-10
9.886047322e-11
1.050991001e-10
8.763094486e-12
1.529189005e-11
1.720700341e-11
2.40840014e-11
3.209265729e-11
2.83204643e-11
3.792504799e-11
3.908572276e-11
4.282889888e-11
6.079034089e-11
7.570501164e-11
7.143953187e-11
9.314415e-11
6.856686182e-11
7.965130584e-11
1.014429746e-10
8.519352785e-11
9.334726808e-11
7.753307439e-11
1.13543009e-10
1.151969706e-10
1.09770816e-10
9.517533084e-11
1.234377614e-10
1.391649045e-10
1.135720259e-10
9.903457444e-11
9.172232341e-11
1.160964935e-10
1.269197857e-10
9.418875729e-11
1.014429746e-10
9.111296916e-11
9.833816958e-11
1.097127823e-10
1.010077215e-10
1.067240448e-10
1.2085526e-10
1.378591454e-10
1.14877785e-10
1.155741899e-10
1.200137708e-10
8.995229439e-12
2.06019771e-11
1.09103428e-11
2.118231449e-11
2.626026659e-11
3.310824771e-11
4.906752575e-11
4.332218565e-11
4.665912561e-11
5.933949743e-11
5.530615262e-11
5.336202238e-11
6.601337734e-11
6.467860136e-11
8.530959533e-11
8.670240505e-11
8.934294014e-11
9.691634299e-11
1.087262087e-10
1.0890031e-10
1.091904786e-10
1.456356663e-10
1.316785522e-10
1.123823343e-10
1.389908033e-10
1.154291055e-10
1.066950279e-10
1.019652782e-10
1.012688734e-10
1.128466042e-10
1.151969706e-10
8.116018304e-11
9.621993813e-11
9.027147995e-11
9.381153799e-11
1.150228693e-10
1.071302809e-10
1.175183201e-10
1.265425664e-10
1.055923869e-10
1.06666011e-10
9.677125864e-11
2.878473421e-11
9.198347523e-12
2.434515322e-11
2.144346631e-11
2.451925444e-11
2.965524028e-11
3.14252693e-11
3.589386715e-11
4.596272075e-11
4.575960266e-11
5.162101023e-11
7.454433687e-11
6.543303995e-11
7.442826939e-11
6.891506425e-11
7.425416818e-11
8.037672757e-11
8.577386523e-11
1.082039051e-10
1.096257317e-10
1.16212561e-10
1.23960065e-10
1.473476616e-10
1.340869524e-10
1.044317121e-10
1.098578666e-10
1.127015198e-10
1.242212169e-10
1.267747014e-10
9.288299818e-11
1.230025084e-10
8.864653528e-11
1.034451386e-10
9.888949009e-11
9.778684907e-11
1.136300596e-10
9.682929238e-11
1.064919098e-10
9.833816958e-11
1.05795505e-10
9.920867565e-11
9.363743678e-11
1.381202972e-11
9.343431869e-12
1.761323958e-11
2.095017953e-11
2.501254121e-11
3.011951019e-11
5.153395963e-11
5.623469243e-11
4.877735706e-11
4.921261009e-11
5.655387799e-11
6.192199879e-11
7.106231257e-11
6.630354603e-11
6.192199879e-11
6.543303995e-11
8.716667495e-11
7.953523836e-11
8.539664593e-11
1.057084543e-10
1.018492107e-10
1.374819261e-10
1.328972607e-10
1.127595536e-10
1.333615307e-10
1.319397041e-10
1.003983673e-10
1.10670339e-10
9.282496444e-11
1.072173315e-10
1.301116413e-10
1.283416123e-10
1.097127823e-10
1.088132593e-10
1.189111298e-10
1.008336203e-10
9.880243949e-11
1.234957951e-10
1.178375057e-10
1.32171839e-10
1.170540502e-10
9.198347523e-11
1.793242514e-11
9.66261743e-12
1.227413565e-11
1.706191907e-11
2.298136037e-11
2.698568832e-11
4.19583928e-11
4.123297107e-11
4.561451832e-11
5.591550687e-11
5.431957907e-11
5.632174304e-11
6.267643738e-11
7.370284766e-11
7.378989827e-11
9.253479575e-11
1.124113511e-10
1.017331433e-10
9.012639561e-11
9.709044421e-11
7.820046238e-11
9.51172971e-11
1.030969361e-10
9.299906565e-11
1.124113511e-10
1.090744112e-10
1.211744456e-10
1.094226136e-10
1.170250333e-10
1.18214725e-10
1.265135495e-10
1.135139921e-10
1.135139921e-10
1.067240448e-10
1.144715488e-10
1.060566568e-10
1.31504451e-10
1.419505239e-10
1.257010772e-10
1.114537944e-10
1.080298039e-10
1.046058133e-10
2.216888804e-11
1.427629963e-11
2.399695079e-11
2.977130776e-11
4.105886986e-11
4.555648458e-11
4.358333748e-11
5.231741509e-11
6.000688542e-11
5.800472145e-11
6.215413374e-11
6.888604738e-11
6.441744953e-11
7.857768168e-11
7.419613444e-11
8.800816416e-11
8.876260276e-11
7.822947925e-11
8.81532485e-11
9.540746579e-11
8.629616888e-11
1.038803916e-10
7.767815874e-11
7.735897318e-11
1.049830326e-10
1.232346433e-10
9.743864664e-11
1.059115724e-10
9.476909467e-11
1.068401122e-10
8.789209668e-11
1.039094085e-10
1.165897803e-10
1.031549699e-10
1.201008214e-10
9.076476673e-11
1.382653815e-10
1.391939214e-10
1.195785178e-10
1.3994836e-10
1.103221365e-10
9.656814056e-11
2.800127874e-11
8.385875187e-12
1.648158168e-11
1.877391435e-11
4.306103383e-11
4.221954463e-11
3.879555407e-11
5.214331388e-11
6.290857234e-11
6.488171944e-11
6.583927612e-11
8.203068911e-11
7.146854874e-11
7.585009598e-11
7.483450556e-11
8.960409196e-11
7.764914187e-11
9.407268981e-11
1.161255104e-10
1.11337727e-10
1.277032412e-10
9.677125864e-11
1.187950623e-10
9.508828023e-11
1.071012641e-10
9.659715743e-11
1.123533174e-10
1.16212561e-10
1.171991345e-10
1.183888262e-10
1.134269415e-10
1.190271973e-10
9.798996715e-11
1.095386811e-10
1.026326662e-10
1.164446959e-10
1.343481042e-10
1.336516993e-10
1.125274186e-10
1.333905475e-10
1.210003444e-10
1.051571338e-10
2.713077266e-11
1.059115724e-11
1.746815523e-11
2.840751491e-11
4.729749673e-11
5.342005612e-11
4.23356121e-11
5.588649e-11
6.572320864e-11
6.787045696e-11
7.210691986e-11
6.647764724e-11
6.499778692e-11
6.348890972e-11
7.448630313e-11
8.348153257e-11
8.101509869e-11
8.519352785e-11
8.322038075e-11
9.720651168e-11
9.47400778e-11
1.203039395e-10
1.103511534e-10
1.016170758e-10
9.999213112e-11
1.001081986e-10
1.023134807e-10
1.146166332e-10
1.043446615e-10
1.112506764e-10
1.147036838e-10
1.001372155e-10
1.229444746e-10
1.137461271e-10
1.17315202e-10
1.089293268e-10
1.34174003e-10
1.287768653e-10
1.32171839e-10
1.214355974e-10
1.253238579e-10
1.104091871e-10
2.089214579e-11
1.201298383e-11
1.842571192e-11
2.565091234e-11
3.18024886e-11
5.150494276e-11
3.699650818e-11
5.713421537e-11
7.039492458e-11
6.296660607e-11
6.795750757e-11
8.919785579e-11
8.057984565e-11
7.094624509e-11
7.326759463e-11
7.956425523e-11
8.751487738e-11
8.85304678e-11
1.140362958e-10
1.109895245e-10
9.877342262e-11
1.082039051e-10
1.015880589e-10
9.172232341e-11
8.954605822e-11
9.265086322e-11
1.046638471e-10
9.122903664e-11
1.19085231e-10
9.558156701e-11
1.177214382e-10
1.049540157e-10
1.089583437e-10
8.266906023e-11
8.026066009e-11
8.73117593e-11
8.713765808e-11
1.017041264e-10
1.034451386e-10
1.030679193e-10
9.82221021e-11
8.243692528e-11
2.231397238e-11
9.314415e-12
1.456646832e-11
2.118231449e-11
3.157035364e-11
4.494713033e-11
4.140707229e-11
4.935769444e-11
6.070329028e-11
6.064525654e-11
5.440662967e-11
8.983622692e-11
8.142133486e-11
7.918703593e-11
6.354694346e-11
6.807357505e-11
8.351054944e-11
8.072493e-11
9.244774514e-11
1.100319679e-10
9.140313785e-11
8.153740234e-11
1.065499436e-10
9.926670939e-11
1.057084543e-10
9.581370196e-11
9.6248955e-11
1.189401467e-10
1.391649045e-10
1.245694193e-10
1.014139577e-10
1.030679193e-10
1.136010428e-10
1.136880934e-10
1.102350859e-10
1.149358187e-10
1.14210397e-10
9.529139832e-11
9.862833827e-11
9.790291654e-11
1.022554469e-10
7.936113715e-11
2.071804458e-11
1.474056953e-11
2.010869033e-11
2.437417009e-11
3.606796836e-11
4.117493734e-11
3.389170318e-11
5.672797921e-11
4.761668229e-11
6.110952645e-11
5.519008514e-11
6.807357505e-11
5.342005612e-11
8.124723364e-11
7.831652986e-11
6.876997991e-11
7.535680921e-11
8.403285308e-11
7.605321407e-11
7.41381007e-11
8.353956631e-11
9.694535986e-11
9.500122963e-11
1.271809375e-10
1.296183545e-10
1.160964935e-10
1.250336892e-10
1.362051838e-10
1.247435205e-10
9.514631397e-11
1.010657553e-10
1.127015198e-10
1.035031723e-10
1.025746325e-10
9.697437673e-11
1.32171839e-10
1.171701177e-10
9.357940304e-11
1.02893818e-10
1.012398565e-10
1.103221365e-10
9.43628585e-11
3.342743327e-11
8.008655888e-12
1.694585159e-11
2.492549061e-11
2.805931248e-11
3.473319238e-11
4.715241238e-11
4.509221467e-11
5.77725865e-11
6.702896776e-11
6.145772888e-11
6.491073631e-11
5.977475047e-11
6.685486654e-11
8.145035173e-11
8.023164322e-11
7.045295832e-11
8.838538346e-11
9.906359131e-11
9.563960075e-11
8.066689626e-11
9.027147995e-11
9.82221021e-11
1.078266858e-10
1.038513747e-10
1.084650569e-10
8.539664593e-11
1.001372155e-10
1.133689078e-10
1.404416467e-10
1.29734422e-10
1.143554814e-10
9.723552855e-11
9.685830925e-11
1.165317465e-10
1.105542715e-10
1.171701177e-10
1.213485468e-10
1.132818572e-10
8.493237603e-11
1.019652782e-10
8.313333014e-11
2.631830033e-11
7.196183551e-12
1.172281514e-11
1.877391435e-11
3.374661883e-11
3.426892248e-11
3.600993463e-11
5.11857572e-11
5.342005612e-11
6.282152173e-11
6.389514589e-11
5.768553589e-11
6.453351701e-11
7.669158519e-11
7.039492458e-11
8.040574444e-11
1.118890475e-10
9.630698874e-11
9.363743678e-11
1.090163774e-10
1.048089314e-10
1.067240448e-10
8.673142192e-11
9.395662234e-11
1.019652782e-10
1.052732013e-10
1.320267547e-10
1.298795064e-10
1.074204496e-10
1.201298383e-10
1.079717701e-10
9.627797187e-11
1.062597749e-10
8.681847252e-11
1.251207398e-10
8.992327752e-11
1.097998329e-10
9.442089224e-11
8.818226537e-11
9.810603463e-11
9.862833827e-11
1.005724685e-10
1.793242514e-11
9.836718645e-12
1.410219841e-11
1.845472879e-11
2.855259925e-11
2.875571734e-11
3.751881182e-11
5.304283682e-11
4.906752575e-11
5.832390701e-11
4.355432061e-11
5.678601294e-11
7.944818776e-11
6.174789757e-11
6.758028827e-11
7.039492458e-11
6.319874103e-11
8.281414458e-11
1.143264645e-10
9.288299818e-11
8.200167224e-11
8.229184093e-11
8.925588953e-11
9.909260818e-11
9.990508051e-11
8.736979304e-11
1.169960164e-10
1.002242661e-10
1.137461271e-10
1.098578666e-10
1.074494665e-10
1.059115724e-10
1.178955394e-10
1.29067034e-10
1.519613438e-10
1.367274875e-10
1.45490582e-10
1.296763883e-10
1.234087445e-10
1.351315597e-10
1.102350859e-10
8.986524379e-11
3.519746229e-11
1.125854523e-11
1.288348991e-11
1.488565388e-11
2.28652929e-11
2.385186645e-11
3.818619981e-11
4.024639752e-11
5.629272617e-11
6.08773915e-11
5.696011416e-11
5.870112631e-11
6.038410472e-11
6.479466883e-11
7.550189355e-11
8.34525157e-11
7.985442393e-11
8.510647724e-11
1.167928984e-10
1.20652142e-10
9.709044421e-11
9.566861762e-11
8.88206365e-11
1.137171102e-10
8.594796645e-11
1.055923869e-10
8.574484836e-11
7.770717561e-11
7.698175388e-11
8.371366752e-11
9.970196243e-11
9.958589495e-11
9.935376e-11
1.05331235e-10
1.176924213e-10
1.32403974e-10
1.383524321e-10
1.158933754e-10
1.267166676e-10
1.087842425e-10
1.077976689e-10
8.879161963e-11
2.309742785e-11
6.876997991e-12
1.74101215e-11
1.90060493e-11
2.698568832e-11
3.68804407e-11
4.758766542e-11
4.338021939e-11
5.484188271e-11
6.13416614e-11
7.32966115e-11
6.409826397e-11
6.592632673e-11
7.689470327e-11
9.732257916e-11
8.832734972e-11
8.397481935e-11
8.61801014e-11
9.334726808e-11
1.029518518e-10
9.456597659e-11
9.778684907e-11
9.479811154e-11
1.261653471e-10
1.04460729e-10
1.105832884e-10
1.362051838e-10
1.222770866e-10
1.198686865e-10
1.266006001e-10
1.154581224e-10
1.30169675e-10
1.079137364e-10
1.094516305e-10
1.183598093e-10
1.198977034e-10
1.33506615e-10
1.167928984e-10
1.035031723e-10
1.006305022e-10
1.058825556e-10
9.157723907e-11
4.059459995e-11
8.821128224e-12
1.474056953e-11
2.298136037e-11
3.569074907e-11
3.360153449e-11
4.291594949e-11
4.349628687e-11
4.738454734e-11
6.882801364e-11
8.252397589e-11
6.668076533e-11
7.503762364e-11
8.275611084e-11
7.999950827e-11
9.601682005e-11
9.621993813e-11
1.051861507e-10
7.387694888e-11
1.034451386e-10
1.05795505e-10
1.0890031e-10
1.09335563e-10
1.350154922e-10
1.235538289e-10
1.267166676e-10
1.359730489e-10
1.195785178e-10
1.014719914e-10
1.064338761e-10
9.912162505e-11
9.343431869e-11
9.77578322e-11
1.181276743e-10
9.851227079e-11
8.586091584e-11
1.032420205e-10
1.012978902e-10
1.101190185e-10
1.018492107e-10
9.825111897e-11
9.398563921e-11
5.582845626e-11
1.027197168e-11
2.016672407e-11
2.887178481e-11
3.531352977e-11
3.966606014e-11
4.842915463e-11
5.812078893e-11
6.917621607e-11
7.32966115e-11
7.10332957e-11
9.479811154e-11
7.936113715e-11
1.351315597e-10
9.273791383e-11
9.471106093e-11
1.395711407e-10
1.177794719e-10
1.083199726e-10
1.149938525e-10
1.438366204e-10
1.16879949e-10
1.033871048e-10
1.130497222e-10
1.104091871e-10
1.105542715e-10
1.259041953e-10
1.185339105e-10
1.188240792e-10
9.697437673e-11
1.010367384e-10
1.001952492e-10
1.083780063e-10
9.903457444e-11
9.517533084e-11
1.049540157e-10
9.630698874e-11
1.075945508e-10
9.131608724e-11
7.782324308e-11
8.562878089e-11
8.182757103e-11
3.80120986e-11
7.863571542e-12
1.459548519e-11
2.344563028e-11
2.927802098e-11
2.939408846e-11
4.044951561e-11
4.529533276e-11
4.578861953e-11
5.286873561e-11
6.215413374e-11
7.680765266e-11
8.800816416e-11
9.349235243e-11
1.239310482e-10
1.06230758e-10
1.039094085e-10
1.160964935e-10
1.002242661e-10
1.05331235e-10
1.20420007e-10
1.177214382e-10
1.359150151e-10
1.219288842e-10
1.099449172e-10
1.11540845e-10
1.196365515e-10
1.036192398e-10
9.244774514e-11
1.113667438e-10
1.159223923e-10
1.022554469e-10
1.030389024e-10
1.138331777e-10
9.030049682e-11
1.129626716e-10
9.996311425e-11
1.135720259e-10
8.179855416e-11
9.874440575e-11
8.861751841e-11
7.544385981e-11
1.334775981e-11
8.995229439e-12
1.732307089e-11
1.729405402e-11
2.451925444e-11
3.075788131e-11
3.21797079e-11
4.024639752e-11
4.367038808e-11
5.614764182e-11
5.208528014e-11
5.286873561e-11
5.812078893e-11
8.104411556e-11
6.467860136e-11
9.285398131e-11
9.311513313e-11
1.005144348e-10
9.709044421e-11
8.748586051e-11
9.572665136e-11
9.743864664e-11
1.137461271e-10
9.877342262e-11
1.40818866e-10
1.026907e-10
1.142684307e-10
1.125274186e-10
1.055923869e-10
1.210293613e-10
1.25294841e-10
1.474927459e-10
1.337967837e-10
1.133689078e-10
1.267166676e-10
1.166187971e-10
1.354797621e-10
1.381783309e-10
1.165317465e-10
1.129336548e-10
9.81350515e-11
9.108395229e-11
2.843653178e-11
2.02247578e-11
1.369596224e-11
1.978950477e-11
3.403678752e-11
3.174445486e-11
3.911473963e-11
4.239364584e-11
4.77037329e-11
6.418531458e-11
7.721388883e-11
6.781242322e-11
8.182757103e-11
7.770717561e-11
7.820046238e-11
8.266906023e-11
9.89765407e-11
1.026907e-10
1.056504206e-10
7.95062215e-11
8.34525157e-11
9.270889696e-11
1.030969361e-10
9.546549953e-11
1.273840556e-10
1.040835097e-10
1.093645799e-10
8.995229439e-11
9.064869925e-11
8.333644822e-11
9.595878631e-11
1.076816014e-10
1.152840212e-10
1.03125953e-10
1.033000542e-10
1.040835097e-10
1.119180643e-10
1.328682439e-10
1.115988788e-10
1.169960164e-10
1.028357843e-10
9.204150897e-11
3.380465257e-11
6.470761822e-12
1.16647814e-11
2.02247578e-11
2.269119168e-11
2.7943245e-11
3.931785771e-11
3.978212762e-11
4.927064383e-11
6.685486654e-11
7.352874645e-11
7.918703593e-11
8.403285308e-11
7.669158519e-11
9.566861762e-11
1.077976689e-10
9.096788481e-11
1.045767964e-10
8.942999075e-11
1.145295826e-10
8.435203864e-11
8.954605822e-11
9.360841991e-11
1.035902229e-10
1.064628929e-10
1.164737128e-10
1.012398565e-10
1.012108396e-10
9.767078159e-11
1.021103626e-10
9.880243949e-11
1.193753997e-10
1.239310482e-10
1.181566912e-10
1.102350859e-10
1.086391581e-10
1.004273842e-10
1.121792162e-10
9.172232341e-11
8.763094486e-11
9.903457444e-11
8.763094486e-11
2.55928786e-11
6.180593131e-12
1.636551421e-11
1.978950477e-11
2.817537995e-11
3.952097579e-11
4.483106285e-11
4.752963168e-11
4.58176364e-11
5.97457336e-11
5.344907299e-11
6.026803724e-11
7.99704914e-11
8.963310883e-11
9.868637201e-11
1.01123789e-10
8.368465065e-11
9.323120061e-11
7.970933958e-11
9.143215472e-11
7.677863579e-11
7.521172486e-11
1.008916541e-10
1.029808686e-10
1.019652782e-10
1.068110954e-10
1.283416123e-10
1.325490583e-10
1.268327351e-10
1.247145036e-10
1.209132938e-10
1.034741554e-10
1.301986919e-10
1.191432648e-10
1.227703734e-10
1.11105592e-10
9.035853056e-11
1.028648012e-10
1.163576453e-10
1.090453943e-10
9.514631397e-11
1.242212169e-10
8.327841449e-12
7.979639019e-12
2.704372206e-11
3.409482126e-11
2.594108103e-11
3.53715635e-11
3.740274435e-11
4.358333748e-11
4.781980037e-11
5.121477407e-11
5.690208042e-11
7.170068369e-11
6.961146911e-11
8.803718103e-11
8.690552313e-11
8.861751841e-11
1.169669996e-10
1.166187971e-10
1.059696062e-10
1.21522648e-10
1.149068019e-10
9.073574986e-11
9.825111897e-11
1.027197168e-10
1.227703734e-10
1.005724685e-10
1.204780407e-10
1.220159348e-10
1.3948409e-10
1.067530616e-10
1.251787736e-10
1.216096986e-10
1.118890475e-10
1.19752619e-10
1.105832884e-10
1.057374712e-10
1.073624159e-10
9.395662234e-11
1.012978902e-10
1.003693504e-10
8.81532485e-11
1.056504206e-10
2.341661341e-11
1.505975509e-11
1.648158168e-11
3.554566472e-11
3.641617079e-11
4.947376192e-11
4.210347715e-11
4.155215664e-11
4.80809522e-11
5.095362224e-11
6.36049772e-11
7.042394145e-11
5.684404668e-11
8.49613929e-11
8.676043879e-11
9.006836187e-11
1.003113167e-10
1.003983673e-10
9.66261743e-11
1.020813457e-10
1.203329564e-10
9.694535986e-11
9.230266079e-11
9.230266079e-11
1.03125953e-10
9.546549953e-11
1.123823343e-10
1.2131953e-10
1.288348991e-10
1.238439976e-10
1.237279301e-10
1.282545617e-10
1.277612749e-10
1.25526976e-10
1.42385777e-10
1.151389368e-10
1.338258006e-10
1.157773079e-10
1.256720603e-10
1.100609847e-10
1.039094085e-10
9.778684907e-11
2.385186645e-11
1.395711407e-11
3.65032214e-11
3.548763098e-11
2.582501355e-11
2.956818967e-11
4.387350617e-11
4.587567014e-11
5.536418636e-11
5.803373832e-11
6.456253388e-11
7.52697586e-11
7.509565738e-11
7.930310341e-11
8.705060748e-11
7.315152715e-11
8.803718103e-11
1.187080117e-10
8.861751841e-11
1.084940738e-10
1.084070232e-10
9.363743678e-11
9.906359131e-11
1.108734571e-10
1.18417843e-10
1.056794375e-10
1.199557371e-10
1.01123789e-10
1.299375401e-10
1.367274875e-10
1.100609847e-10
1.033290711e-10
1.227413565e-10
1.021974132e-10
1.069271629e-10
1.314174004e-10
1.138331777e-10
1.147036838e-10
1.172861851e-10
1.093065461e-10
1.149938525e-10
1.147327007e-10
1.474056953e-11
1.033000542e-11
1.944130234e-11
3.017754393e-11
2.858161612e-11
3.368858509e-11
3.638715393e-11
5.298480308e-11
6.006491916e-11
5.263660065e-11
6.598436047e-11
7.190380178e-11
8.612206766e-11
8.983622692e-11
9.801898402e-11
8.536762907e-11
9.369547051e-11
1.002822998e-10
1.223061035e-10
9.703241047e-11
1.113957607e-10
1.048089314e-10
1.071592978e-10
1.549500813e-10
1.161835441e-10
1.074784834e-10
1.096257317e-10
1.087842425e-10
9.151920533e-11
8.684748939e-11
9.569763449e-11
8.748586051e-11
7.454433687e-11
9.543648266e-11
8.876260276e-11
1.058535387e-10
1.106413221e-10
1.211454287e-10
1.119180643e-10
1.036482566e-10
9.038754743e-11
9.122903664e-11
1.137461271e-11
1.064919098e-11
1.642354794e-11
1.810652636e-11
2.478040626e-11
3.49072936e-11
4.924162696e-11
3.748979495e-11
5.594452374e-11
6.102247584e-11
5.112772346e-11
5.82368564e-11
6.180593131e-11
8.635420262e-11
8.008655888e-11
7.663355145e-11
9.195445836e-11
7.213593673e-11
9.697437673e-11
8.870456902e-11
1.211454287e-10
9.424679103e-11
1.05331235e-10
8.638321949e-11
9.798996715e-11
8.008655888e-11
9.207052584e-11
9.209954271e-11
1.074204496e-10
9.230266079e-11
9.978901304e-11
1.100609847e-10
1.046348302e-10
9.267988009e-11
9.143215472e-11
1.096547486e-10
9.915064192e-11
1.040544928e-10
1.193753997e-10
1.025165987e-10
1.190562142e-10
9.999213112e-11
1.819357696e-11
1.436335023e-11
1.378301285e-11
1.868686374e-11
2.536074364e-11
3.751881182e-11
4.6572075e-11
5.214331388e-11
5.167904397e-11
4.81680028e-11
6.041312159e-11
5.922342995e-11
6.627452916e-11
6.267643738e-11
7.779422621e-11
8.568681463e-11
9.584271883e-11
9.561058388e-11
9.479811154e-11
1.149358187e-10
1.383234153e-10
1.216096986e-10
1.127595536e-10
1.13543009e-10
1.2706487e-10
1.077976689e-10
9.868637201e-11
9.89765407e-11
1.238730144e-10
1.112216595e-10
1.208262432e-10
1.319397041e-10
1.105542715e-10
1.101770522e-10
1.000791817e-10
1.126434861e-10
1.176634044e-10
1.130497222e-10
9.500122963e-11
1.09103428e-10
9.665519117e-11
9.288299818e-11
1.697486846e-11
1.677175037e-11
1.653961542e-11
2.132739883e-11
3.113510061e-11
2.956818967e-11
3.702552505e-11
4.529533276e-11
7.184576804e-11
7.1410515e-11
6.583927612e-11
7.854866481e-11
8.14793686e-11
8.310431327e-11
1.126144692e-10
9.166428967e-11
1.063758423e-10
1.157773079e-10
9.38985886e-11
1.132528403e-10
1.255850097e-10
1.292121184e-10
1.265425664e-10
1.454035314e-10
1.223931541e-10
1.298795064e-10
1.000501649e-10
9.346333556e-11
9.804800089e-11
1.056504206e-10
1.197816359e-10
1.178084888e-10
1.115698619e-10
1.292701521e-10
9.929572626e-11
9.894752383e-11
8.705060748e-11
1.020523288e-10
1.084070232e-10
1.19317366e-10
1.049830326e-10
8.879161963e-11
5.948458178e-12
9.488516215e-12
1.337677668e-11
2.303939411e-11
2.530270991e-11
3.316628145e-11
5.295578621e-11
5.298480308e-11
6.459155075e-11
5.71051985e-11
7.535680921e-11
6.975655346e-11
6.720306897e-11
8.089903121e-11
9.769979846e-11
9.372448738e-11
1.006305022e-10
1.021683963e-10
8.472925794e-11
1.005144348e-10
1.104672209e-10
1.053022182e-10
1.140362958e-10
1.049249989e-10
9.78448828e-11
1.118019969e-10
1.218998673e-10
1.066079773e-10
1.102641028e-10
9.485614528e-11
9.520434771e-11
1.013269071e-10
1.092194955e-10
9.938277687e-11
1.160384598e-10
1.022554469e-10
9.372448738e-11
1.005434516e-10
9.894752383e-11
1.062887917e-10
1.017041264e-10
9.613288752e-11
1.305759112e-11
8.211773972e-12
1.534992379e-11
2.901686916e-11
4.799390159e-11
4.071066743e-11
4.677519308e-11
5.562533818e-11
4.837112089e-11
6.44464664e-11
7.051099206e-11
5.217233075e-11
6.035508785e-11
6.485270257e-11
7.466040435e-11
7.190380178e-11
7.306447654e-11
9.230266079e-11
7.825849612e-11
7.87517829e-11
8.348153257e-11
1.096257317e-10
8.902375458e-11
1.234377614e-10
1.122952836e-10
9.906359131e-11
1.06230758e-10
1.072173315e-10
9.682929238e-11
1.015880589e-10
8.887867023e-11
1.000501649e-10
1.075075002e-10
1.164737128e-10
1.082909557e-10
1.154291055e-10
1.105542715e-10
1.104091871e-10
1.269197857e-10
9.711946107e-11
8.493237603e-11
1.045187627e-10
2.388088332e-11
9.140313785e-12
1.587222743e-11
2.129838196e-11
2.887178481e-11
3.365956822e-11
4.628190631e-11
5.826587327e-11
6.299562294e-11
6.685486654e-11
7.669158519e-11
7.500860678e-11
8.121821678e-11
9.262184636e-11
7.457335374e-11
7.822947925e-11
7.381891514e-11
9.81350515e-11
1.071592978e-10
1.079427533e-10
9.23897114e-11
1.084070232e-10
1.094806473e-10
1.138331777e-10
1.065209267e-10
1.068691291e-10
1.119180643e-10
9.839620332e-11
1.258171447e-10
8.963310883e-11
9.839620332e-11
9.444990911e-11
8.162445294e-11
9.320218374e-11
1.089293268e-10
1.128466042e-10
1.208842769e-10
1.193753997e-10
1.178375057e-10
1.266876507e-10
1.155741899e-10
1.05331235e-10
2.599911477e-11
1.001081986e-11
1.537894065e-11
2.028279154e-11
2.498352435e-11
3.203462355e-11
4.680420995e-11
5.327497178e-11
4.89224414e-11
7.593714659e-11
7.335464523e-11
7.698175388e-11
9.198347523e-11
8.060886252e-11
8.406186995e-11
8.969114257e-11
8.316234701e-11
9.906359131e-11
1.003693504e-10
9.677125864e-11
8.986524379e-11
1.002242661e-10
1.054182857e-10
1.05795505e-10
1.047218808e-10
1.111636257e-10
1.114247776e-10
1.036482566e-10
1.044897458e-10
1.270938869e-10
1.032710373e-10
1.085230907e-10
1.061727243e-10
1.052151676e-10
1.24424335e-10
1.256720603e-10
1.021103626e-10
1.098578666e-10
1.030969361e-10
1.219869179e-10
1.117149463e-10
9.378252112e-11
2.138543257e-11
1.012688734e-11
1.595927804e-11
2.977130776e-11
3.25569272e-11
3.342743327e-11
3.966606014e-11
5.095362224e-11
5.548025383e-11
5.310087056e-11
6.314070729e-11
5.658289486e-11
6.05872228e-11
7.866473229e-11
7.094624509e-11
1.003403336e-10
8.438105551e-11
7.782324308e-11
7.941917089e-11
8.783406294e-11
7.518270799e-11
7.994147453e-11
9.912162505e-11
1.033290711e-10
9.224462706e-11
9.468204407e-11
9.375350425e-11
1.006014854e-10
9.685830925e-11
1.201008214e-10
9.996311425e-11
1.154000886e-10
1.15980426e-10
1.043446615e-10
9.459499346e-11
1.309821474e-10
1.119180643e-10
1.097417992e-10
9.961491182e-11
1.230025084e-10
1.084940738e-10
1.056794375e-10
2.573796294e-11
1.241922e-11
1.909309991e-11
3.235380911e-11
4.207446028e-11
4.477302911e-11
4.802291846e-11
5.51320514e-11
6.003590229e-11
6.64196135e-11
6.940835103e-11
8.130526738e-11
6.592632673e-11
7.303545967e-11
7.219397047e-11
9.43628585e-11
7.788127682e-11
8.525156159e-11
9.938277687e-11
8.96621257e-11
1.25526976e-10
1.096257317e-10
8.934294014e-11
8.736979304e-11
1.076235677e-10
9.656814056e-11
9.265086322e-11
9.485614528e-11
8.020262636e-11
9.558156701e-11
1.161255104e-10
1.081748882e-10
1.060276399e-10
1.161255104e-10
1.021974132e-10
9.273791383e-11
8.478729168e-11
8.545467967e-11
9.677125864e-11
9.961491182e-11
1.000501649e-10
1.058825556e-10
4.242266271e-11
2.318447846e-11
2.655043528e-11
3.865046972e-11
3.690945757e-11
3.789603112e-11
5.426154533e-11
4.245167958e-11
4.517926528e-11
5.060541981e-11
6.377907841e-11
8.986524379e-11
7.831652986e-11
7.193281864e-11
7.927408654e-11
1.001372155e-10
8.165346981e-11
8.931392327e-11
1.040254759e-10
1.125564355e-10
9.311513313e-11
7.712683822e-11
8.014459262e-11
9.520434771e-11
9.180937402e-11
1.054182857e-10
1.023424975e-10
8.760192799e-11
8.461319047e-11
9.027147995e-11
1.024875819e-10
1.058535387e-10
1.273260219e-10
1.047508977e-10
9.729356229e-11
9.375350425e-11
8.507746037e-11
7.817144551e-11
8.217577346e-11
8.826931598e-11
8.089903121e-11
9.645207308e-11
2.99163921e-11
9.111296916e-12
1.854177939e-11
2.390990019e-11
3.038066201e-11
4.616583883e-11
4.274184827e-11
3.894063841e-11
4.491811346e-11
5.040230173e-11
6.218315061e-11
6.401121336e-11
7.437023565e-11
6.113854332e-11
7.764914187e-11
9.366645364e-11
7.344169584e-11
1.046928639e-10
1.034451386e-10
1.318526535e-10
9.357940304e-11
8.884965336e-11
9.413072355e-11
1.016460927e-10
1.07565534e-10
1.030969361e-10
1.345512223e-10
1.218128167e-10
1.008336203e-10
1.043446615e-10
1.09103428e-10
1.206811588e-10
1.095676979e-10
1.120341318e-10
1.014719914e-10
1.185339105e-10
9.97309793e-11
8.777602921e-11
7.970933958e-11
9.769979846e-11
8.797914729e-11
9.42758079e-11
1.352186103e-11
1.40151478e-11
3.244085972e-11
4.262578079e-11
4.593370388e-11
5.635075991e-11
4.721044612e-11
6.084837463e-11
5.368120794e-11
7.56469779e-11
6.418531458e-11
7.863571542e-11
7.843259734e-11
8.861751841e-11
8.832734972e-11
8.719569182e-11
8.80661979e-11
1.024875819e-10
9.78448828e-11
1.106123052e-10
1.147327007e-10
9.767078159e-11
1.031839867e-10
1.121211824e-10
1.086971919e-10
1.174602864e-10
1.269778194e-10
1.22857424e-10
1.145876163e-10
1.178955394e-10
1.160384598e-10
1.218418336e-10
1.234377614e-10
1.247725374e-10
1.208262432e-10
1.36379285e-10
1.346672898e-10
1.252658242e-10
1.346672898e-10
1.297634389e-10
1.25526976e-10
1.286898147e-10
6.531697248e-11
5.371022481e-11
5.846899136e-11
7.785225995e-11
8.464220734e-11
8.745684364e-11
1.049249989e-10
9.450794285e-11
1.171411008e-10
9.372448738e-11
1.117439631e-10
1.52135445e-10
1.201008214e-10
1.503944329e-10
1.353927115e-10
1.352186103e-10
1.299085232e-10
1.451423795e-10
1.315915016e-10
1.195785178e-10
1.798755719e-10
1.76306497e-10
1.495819605e-10
1.42385777e-10
1.402095118e-10
1.425018444e-10
1.631908721e-10
2.050912312e-10
1.747976198e-10
1.366404369e-10
1.516421582e-10
1.613628094e-10
1.616239612e-10
1.540215415e-10
1.490886737e-10
1.683558749e-10
1.624944673e-10
1.95167462e-10
2.027118479e-10
1.964732211e-10
2.291752326e-10
1.575906164e-10
8.487434229e-11
9.16352728e-11
7.210691986e-11
9.207052584e-11
7.645945023e-11
1.24859588e-10
1.198396696e-10
1.929621799e-10
1.357699308e-10
1.326361089e-10
1.479570158e-10
1.933684161e-10
2.122583979e-10
1.684719423e-10
1.657443566e-10
1.724182365e-10
1.766546994e-10
2.072094627e-10
1.554143512e-10
1.99810161e-10
2.130708702e-10
2.001583635e-10
2.150440173e-10
1.745945017e-10
1.776702899e-10
2.005065659e-10
2.20005902e-10
2.031761179e-10