/*--------------------------------*- C++ -*----------------------------------*\
| =========                 |                                                 |
| \\      /  F ield         | OpenFOAM: The Open Source CFD Toolbox           |
|  \\    /   O peration     | Version:  v1706                                 |
|   \\  /    A nd           | Web:      www.OpenFOAM.com                      |
|    \\/     M anipulation  |                                                 |
\*---------------------------------------------------------------------------*/
FoamFile
{
    version     2.0;
    format      ascii;
    class       volScalarField;
    location    "3.996";
    object      rhoM_O2;
}
// * * * * * * * * * * * * * * * * * * * * * * * * * * * * * * * * * * * * * //

dimensions      [1 -3 0 0 0 0 0];


internalField   nonuniform List<scalar> 
50792
(
2.088315993e-12
1.514857791e-11
2.824198771e-11
7.856045877e-12
9.016221428e-12
1.199952999e-11
8.850482064e-12
1.713745029e-11
1.826447797e-11
1.501598642e-11
2.559015788e-11
2.108204716e-11
3.079437392e-11
2.618681959e-11
2.161241313e-11
3.70593219e-11
2.807624834e-11
3.052919094e-11
2.60542281e-11
2.897124091e-11
3.029715583e-11
2.953475475e-11
3.261750693e-11
3.255121119e-11
3.235232395e-11
3.115900052e-11
6.175448721e-11
4.402037521e-11
3.851782831e-11
4.150113687e-11
4.660590929e-11
3.410916121e-11
3.162307074e-11
3.152362713e-11
4.793182421e-11
3.480526654e-11
3.470582292e-11
3.61974772e-11
3.447378781e-11
3.434119632e-11
3.755653999e-11
3.755653999e-11
1.246360021e-11
3.149047925e-12
3.745709637e-12
4.872737316e-12
6.231800105e-12
8.452707589e-12
1.581153537e-11
2.572274937e-11
1.538061302e-11
2.525867915e-11
2.05516812e-11
2.734699514e-11
2.651829832e-11
2.21427791e-11
2.297147592e-11
2.824198771e-11
2.147982164e-11
2.897124091e-11
2.7645326e-11
3.437434419e-11
3.626377295e-11
4.213094645e-11
4.140169325e-11
2.970049412e-11
2.741329089e-11
2.038594183e-11
2.661774194e-11
2.631941108e-11
2.651829832e-11
3.702617403e-11
3.013141646e-11
4.402037521e-11
3.311472502e-11
2.684977705e-11
3.318102077e-11
3.400971759e-11
3.10595569e-11
4.779923272e-11
4.163372836e-11
3.27832463e-11
2.926957177e-11
2.850717069e-11
2.983308561e-13
1.624245772e-12
3.679413892e-12
3.977744748e-12
5.005328807e-12
6.06606074e-12
2.71481079e-11
1.06404672e-11
1.087250231e-11
2.065112481e-11
1.269563532e-11
1.445247258e-11
1.852966095e-11
1.876169606e-11
2.244110995e-11
1.892743542e-11
2.131408227e-11
3.188825373e-11
2.598793235e-11
2.532497489e-11
3.052919094e-11
3.328046439e-11
2.880550155e-11
3.470582292e-11
2.936901539e-11
2.946845901e-11
3.394342185e-11
3.689358253e-11
3.42417527e-11
2.976678986e-11
3.404286547e-11
5.698119351e-11
3.589914635e-11
3.132473989e-11
4.120280601e-11
3.115900052e-11
2.817569196e-11
2.771162174e-11
3.420860483e-11
2.867291006e-11
4.315853051e-11
3.752339212e-11
2.353498976e-12
1.657393645e-12
3.082752179e-12
4.408667095e-12
5.403103282e-12
7.789750131e-12
9.38084803e-12
9.811770378e-12
1.717059816e-11
1.286137468e-11
2.058482907e-11
2.618681959e-11
1.494969068e-11
1.743578114e-11
1.922576628e-11
1.799929498e-11
3.749024425e-11
2.234166633e-11
3.066178243e-11
4.428555819e-11
3.954541237e-11
4.050670068e-11
2.509293978e-11
2.920327602e-11
2.466201744e-11
2.21427791e-11
2.970049412e-11
3.629692082e-11
3.172251436e-11
3.089381754e-11
4.070558792e-11
4.057299643e-11
4.279390391e-11
2.781106536e-11
2.926957177e-11
2.539127064e-11
2.71481079e-11
2.738014301e-11
4.010892621e-11
3.891560278e-11
3.294898566e-11
2.509293978e-11
4.441814968e-12
2.618681959e-12
9.314552284e-12
1.236415659e-11
1.190008637e-11
1.050787571e-11
2.045223758e-11
1.34580364e-11
2.393276423e-11
1.501598642e-11
2.429739083e-11
1.733633753e-11
2.101575142e-11
2.12809344e-11
1.836392159e-11
2.217592697e-11
2.99656771e-11
1.962354076e-11
2.283888443e-11
2.71481079e-11
2.449627807e-11
3.659525168e-11
3.904819427e-11
3.520304102e-11
3.056233881e-11
4.614183907e-11
3.891560278e-11
2.575589724e-11
3.357879524e-11
4.511425501e-11
4.004263046e-11
4.077188366e-11
4.166687623e-11
2.857346644e-11
3.516989314e-11
2.416479934e-11
2.956790262e-11
3.079437392e-11
3.676099104e-11
3.231917607e-11
3.430804845e-11
3.202084522e-11
1.25961917e-12
2.419794721e-12
4.010892621e-12
4.839589443e-12
1.22315651e-11
7.624010766e-12
1.020954485e-11
2.035279396e-11
2.078371631e-11
1.508228217e-11
1.538061302e-11
2.031964609e-11
1.392210662e-11
1.852966095e-11
1.889428755e-11
2.210963122e-11
1.750207689e-11
1.766781625e-11
2.061797694e-11
2.777791749e-11
2.366758125e-11
4.37883401e-11
3.039659945e-11
3.795431447e-11
2.386646849e-11
2.618681959e-11
2.940216326e-11
3.921393364e-11
4.163372836e-11
3.142418351e-11
3.086066967e-11
3.483841441e-11
4.34237135e-11
3.586599847e-11
3.420860483e-11
2.814254409e-11
2.459572169e-11
2.963419837e-11
2.83745792e-11
3.656210381e-11
4.163372836e-11
2.44631302e-11
8.088080987e-12
7.624010766e-13
8.286968224e-13
2.817569196e-12
3.911449002e-12
7.126792673e-12
1.166805126e-11
6.331243723e-12
1.246360021e-11
1.339174065e-11
1.465135982e-11
1.538061302e-11
2.101575142e-11
1.485024706e-11
1.630875347e-11
1.703800667e-11
2.51923834e-11
2.80099526e-11
3.281639417e-11
3.788801872e-11
4.070558792e-11
2.698236854e-11
2.75127345e-11
2.67834813e-11
3.258435906e-11
3.354564737e-11
4.441814968e-11
4.130224963e-11
3.536878038e-11
2.926957177e-11
2.940216326e-11
2.114834291e-11
2.99656771e-11
2.237481421e-11
2.442998233e-11
2.545756639e-11
3.520304102e-11
3.434119632e-11
3.347935163e-11
3.918078576e-11
4.481592416e-11
3.500415378e-11
6.29809585e-13
2.05516812e-12
5.104772426e-12
7.822898004e-12
9.646031013e-12
1.478395131e-11
1.408784598e-11
1.733633753e-11
1.551320452e-11
2.217592697e-11
2.098260354e-11
1.889428755e-11
2.174500462e-11
2.336925039e-11
2.87392058e-11
3.19214016e-11
2.946845901e-11
2.857346644e-11
3.420860483e-11
3.357879524e-11
3.831894107e-11
4.136854538e-11
3.702617403e-11
3.463952718e-11
3.384397823e-11
5.40641807e-11
4.113651027e-11
3.394342185e-11
2.721440365e-11
3.500415378e-11
3.798746234e-11
3.523618889e-11
2.993252923e-11
3.749024425e-11
3.049604307e-11
2.665088981e-11
3.145733138e-11
3.006512072e-11
3.646266019e-11
2.817569196e-11
3.454008356e-11
3.692673041e-11
1.02758406e-12
3.77885751e-12
7.822898004e-12
5.535694774e-12
6.828461817e-12
7.159940546e-12
1.004380549e-11
1.985557587e-11
1.524802153e-11
2.118149078e-11
1.806559073e-11
2.204333548e-11
2.065112481e-11
2.227537059e-11
2.830828345e-11
2.380017274e-11
2.472831318e-11
2.505979191e-11
2.900438879e-11
3.361194312e-11
2.728069939e-11
4.564462098e-11
3.139103563e-11
3.944596875e-11
2.983308561e-11
2.555701e-11
2.844087495e-11
3.212028884e-11
3.553451975e-11
4.760034548e-11
8.356578757e-11
5.151179448e-11
4.551202949e-11
3.798746234e-11
3.656210381e-11
4.64733178e-11
3.908134215e-11
5.011958382e-11
3.871671554e-11
2.847402282e-11
4.518055076e-11
2.7645326e-11
2.386646849e-12
2.254055357e-12
7.756602258e-12
4.706997951e-12
7.723454385e-12
1.216526935e-11
1.680597156e-11
1.286137468e-11
1.306026192e-11
1.833077371e-11
1.869540031e-11
2.237481421e-11
1.955724501e-11
1.839706946e-11
2.472831318e-11
1.531431728e-11
1.906002692e-11
1.597727474e-11
2.177815249e-11
2.363443338e-11
2.983308561e-11
3.049604307e-11
2.197703973e-11
3.175566224e-11
2.376702487e-11
2.383332061e-11
2.883864942e-11
2.83745792e-11
3.63300687e-11
5.79756297e-11
2.317036316e-11
2.747958663e-11
1.889428755e-11
4.385463584e-11
2.469516531e-11
2.492720042e-11
2.346869401e-11
3.013141646e-11
3.337990801e-11
3.06949303e-11
3.672784317e-11
2.67834813e-11
2.883864942e-12
7.624010766e-13
4.972180935e-12
1.657393645e-12
3.812005383e-12
6.132356486e-12
8.717890572e-12
1.33254449e-11
2.559015788e-11
1.70048588e-11
1.949094926e-11
1.488339493e-11
2.578904511e-11
2.154611738e-11
3.613118146e-11
2.330295465e-11
2.976678986e-11
2.336925039e-11
2.317036316e-11
2.25074057e-11
2.111519504e-11
3.364509099e-11
3.361194312e-11
2.936901539e-11
2.141352589e-11
2.509293978e-11
2.565645362e-11
2.946845901e-11
3.503730165e-11
3.520304102e-11
2.814254409e-11
2.787736111e-11
2.897124091e-11
2.844087495e-11
3.77885751e-11
2.651829832e-11
2.237481421e-11
3.056233881e-11
3.735765276e-11
2.512608766e-11
2.724755152e-11
2.038594183e-11
1.988872374e-12
7.988637368e-12
5.966617121e-12
6.198652232e-12
8.485855462e-12
9.646031013e-12
1.34580364e-11
1.428673322e-11
1.584468324e-11
1.803244286e-11
2.240796208e-11
3.076122605e-11
2.827513558e-11
4.050670068e-11
2.814254409e-11
2.237481421e-11
2.542441851e-11
3.251806331e-11
3.516989314e-11
3.573340698e-11
3.82857932e-11
3.076122605e-11
3.195454947e-11
3.666154742e-11
3.324731652e-11
4.083817941e-11
3.63300687e-11
4.693738802e-11
3.417545696e-11
4.269446029e-11
4.017522195e-11
4.004263046e-11
4.302593902e-11
3.666154742e-11
3.374453461e-11
3.576655486e-11
4.02415177e-11
4.02415177e-11
3.530248464e-11
4.040725706e-11
3.507044953e-11
3.208714096e-11
1.644134496e-11
6.894757563e-12
5.336807536e-12
7.193088419e-12
8.883629936e-12
1.196638212e-11
2.87392058e-11
1.402155024e-11
1.554635239e-11
2.101575142e-11
1.720374603e-11
1.707115454e-11
1.978928012e-11
1.915947053e-11
2.655144619e-11
2.081686418e-11
2.429739083e-11
2.857346644e-11
4.309223477e-11
4.813071145e-11
4.107021452e-11
4.209779858e-11
4.899255614e-11
3.58328506e-11
3.51035974e-11
3.417545696e-11
4.484907203e-11
4.113651027e-11
3.749024425e-11
4.41529667e-11
4.73351625e-11
4.826330294e-11
5.920210099e-11
5.565527859e-11
5.379899771e-11
5.224104769e-11
4.982125296e-11
4.276075604e-11
3.417545696e-11
4.110336239e-11
3.029715583e-11
3.172251436e-11
2.525867915e-11
1.813188647e-11
7.259384164e-12
9.61288314e-12
1.113768529e-11
1.193323424e-11
2.081686418e-11
2.757903025e-11
3.195454947e-11
1.312655767e-11
1.952409714e-11
2.356813763e-11
1.485024706e-11
2.121463865e-11
1.962354076e-11
3.049604307e-11
2.1645561e-11
2.787736111e-11
3.951226449e-11
3.112585265e-11
2.681662917e-11
3.185510585e-11
5.167753385e-11
3.579970273e-11
2.684977705e-11
4.193205921e-11
4.13353975e-11
3.81532017e-11
5.12466115e-11
4.226353794e-11
4.445129756e-11
5.167753385e-11
5.565527859e-11
3.400971759e-11
4.408667095e-11
5.426306793e-11
5.648397542e-11
5.996450207e-11
5.688174989e-11
4.544573374e-11
3.755653999e-11
2.665088981e-11
3.261750693e-11
5.403103282e-12
8.552151207e-12
8.817334191e-12
1.060731933e-11
1.365692363e-11
1.866225244e-11
2.973364199e-11
1.428673322e-11
1.610986623e-11
1.697171092e-11
1.61430141e-11
1.617616197e-11
2.442998233e-11
1.902687904e-11
2.131408227e-11
1.902687904e-11
2.346869401e-11
2.817569196e-11
2.413165147e-11
2.038594183e-11
3.036345157e-11
3.818634958e-11
4.693738802e-11
3.825264532e-11
4.527999438e-11
3.35124995e-11
3.533563251e-11
3.795431447e-11
3.384397823e-11
3.102640903e-11
3.692673041e-11
5.843969992e-11
5.078254128e-11
5.850599566e-11
3.808690596e-11
3.947911662e-11
4.004263046e-11
4.06061443e-11
4.153428474e-11
3.354564737e-11
2.744643876e-11
5.535694774e-12
2.883864942e-12
4.309223477e-12
4.673850079e-12
7.126792673e-12
1.054102358e-11
1.070676295e-11
1.246360021e-11
1.458506407e-11
1.839706946e-11
1.84633652e-11
2.008761098e-11
1.826447797e-11
2.625311533e-11
2.618681959e-11
3.397656972e-11
2.217592697e-11
3.149047925e-11
2.854031856e-11
4.511425501e-11
3.135788776e-11
4.080503154e-11
3.523618889e-11
4.726886675e-11
3.212028884e-11
2.963419837e-11
3.520304102e-11
3.536878038e-11
3.357879524e-11
3.609803359e-11
2.466201744e-11
2.555701e-11
3.132473989e-11
3.835208894e-11
2.631941108e-11
3.195454947e-11
3.659525168e-11
2.552386213e-11
3.821949745e-11
3.560081549e-11
3.463952718e-11
3.109270478e-11
4.408667095e-12
1.723689391e-12
2.917012815e-12
5.469399028e-12
8.220672479e-12
1.113768529e-11
1.630875347e-11
1.733633753e-11
2.094945567e-11
3.056233881e-11
2.045223758e-11
2.085001205e-11
2.207648335e-11
2.718125578e-11
4.143484112e-11
3.129159201e-11
3.447378781e-11
3.168936649e-11
4.146798899e-11
3.377768248e-11
2.608737597e-11
3.251806331e-11
3.212028884e-11
4.269446029e-11
4.362260073e-11
3.367823886e-11
4.48822199e-11
4.349000924e-11
4.789867634e-11
3.788801872e-11
3.576655486e-11
3.891560278e-11
4.199835496e-11
4.113651027e-11
3.198769735e-11
4.116965814e-11
3.500415378e-11
3.74239485e-11
4.339056562e-11
5.098142852e-11
4.25618688e-11
2.96010505e-11
1.087250231e-11
2.320351103e-12
5.535694774e-12
8.220672479e-12
9.248256538e-12
1.435302896e-11
1.080620656e-11
1.262933957e-11
2.025335034e-11
1.554635239e-11
1.89605833e-11
2.088315993e-11
2.290518017e-11
2.048538545e-11
1.836392159e-11
3.334676013e-11
2.718125578e-11
3.58328506e-11
3.26506548e-11
2.525867915e-11
2.244110995e-11
2.920327602e-11
2.863976218e-11
3.271695055e-11
4.259501667e-11
3.158992287e-11
4.319167839e-11
2.704866428e-11
4.007577833e-11
2.80099526e-11
3.301528141e-11
3.407601334e-11
2.297147592e-11
2.353498976e-11
2.903753666e-11
3.924708151e-11
4.478277628e-11
2.336925039e-11
2.406535572e-11
5.074939341e-11
3.341305588e-11
2.469516531e-11
5.999764994e-12
3.944596875e-12
4.441814968e-12
7.789750131e-12
6.762166071e-12
1.163490339e-11
2.134723015e-11
1.302711405e-11
1.33254449e-11
1.753522476e-11
2.370072912e-11
2.44631302e-11
3.894875065e-11
3.553451975e-11
2.452942594e-11
2.64188547e-11
3.77885751e-11
4.521369863e-11
3.97442996e-11
3.26506548e-11
3.444063994e-11
3.261750693e-11
4.3291122e-11
5.157809023e-11
4.053984855e-11
2.698236854e-11
3.639636444e-11
3.420860483e-11
3.749024425e-11
4.093762303e-11
4.448444543e-11
4.498166352e-11
3.304842928e-11
2.933586751e-11
2.976678986e-11
3.016456434e-11
3.172251436e-11
2.834143133e-11
2.496034829e-11
3.371138674e-11
2.976678986e-11
2.333610252e-11
6.29809585e-13
2.651829832e-12
5.403103282e-12
1.22315651e-11
1.176749488e-11
1.803244286e-11
2.058482907e-11
1.730318965e-11
1.912632266e-11
3.029715583e-11
2.399905998e-11
2.098260354e-11
2.303777166e-11
2.655144619e-11
2.671718556e-11
3.026400796e-11
2.850717069e-11
3.318102077e-11
3.112585265e-11
4.478277628e-11
3.212028884e-11
2.810939622e-11
3.9379673e-11
4.405352308e-11
2.615367172e-11
2.131408227e-11
2.373387699e-11
3.855097618e-11
2.943531113e-11
3.013141646e-11
3.639636444e-11
2.668403768e-11
3.404286547e-11
2.857346644e-11
2.767847387e-11
2.804310047e-11
3.086066967e-11
3.5468224e-11
3.294898566e-11
2.907068453e-11
3.003197284e-11
2.930271964e-11
1.219841723e-11
3.977744748e-12
9.447143776e-12
7.32567991e-12
2.144667376e-11
1.3822663e-11
1.352433214e-11
1.601042261e-11
1.909317479e-11
1.836392159e-11
2.068427269e-11
2.592163661e-11
2.452942594e-11
2.51923834e-11
2.542441851e-11
3.805375809e-11
3.109270478e-11
3.868356767e-11
4.080503154e-11
4.587665609e-11
3.649580806e-11
3.82857932e-11
4.107021452e-11
2.694922067e-11
4.385463584e-11
3.656210381e-11
3.646266019e-11
3.238547182e-11
4.216409433e-11
3.802061021e-11
4.272760816e-11
3.42417527e-11
3.072807818e-11
2.681662917e-11
2.741329089e-11
3.414230908e-11
2.449627807e-11
3.125844414e-11
2.429739083e-11
2.588848873e-11
3.712561764e-11
3.042974732e-11
3.31478729e-12
2.088315993e-12
1.806559073e-11
4.939033062e-12
1.057417145e-11
1.839706946e-11
1.587783112e-11
1.030898847e-11
1.458506407e-11
1.866225244e-11
1.942465352e-11
1.644134496e-11
1.740263327e-11
1.740263327e-11
2.141352589e-11
2.191074399e-11
2.612052384e-11
3.410916121e-11
2.535812277e-11
3.328046439e-11
1.96898365e-11
2.012075885e-11
2.820883984e-11
5.492602539e-11
2.383332061e-11
3.218658458e-11
3.086066967e-11
3.841838469e-11
3.802061021e-11
2.907068453e-11
3.838523681e-11
4.325797413e-11
5.280456153e-11
5.76110031e-11
3.967800386e-11
4.282705178e-11
3.086066967e-11
2.439683445e-11
2.602108022e-11
2.429739083e-11
2.509293978e-11
1.876169606e-11
7.955489495e-13
3.646266019e-13
2.320351103e-12
3.845153256e-12
1.292767043e-11
1.007695336e-11
1.133657253e-11
2.015390672e-11
1.796614711e-11
1.789985136e-11
2.890494517e-11
1.988872374e-11
2.370072912e-11
2.333610252e-11
2.734699514e-11
2.051853332e-11
2.177815249e-11
2.92364239e-11
2.7645326e-11
2.012075885e-11
2.413165147e-11
3.858412405e-11
4.259501667e-11
4.458388905e-11
3.715876552e-11
3.271695055e-11
2.807624834e-11
3.490471016e-11
2.694922067e-11
2.618681959e-11
4.153428474e-11
5.413047644e-11
5.532379987e-11
4.939033062e-11
5.548953923e-11
3.381083036e-11
4.213094645e-11
3.457323143e-11
4.213094645e-11
2.386646849e-11
3.029715583e-11
2.75127345e-11
1.524802153e-11
4.408667095e-12
8.552151207e-12
1.451876833e-11
8.386411843e-12
8.784186318e-12
1.10050938e-11
1.239730446e-11
2.174500462e-11
1.574523963e-11
1.925891415e-11
2.51923834e-11
2.154611738e-11
2.628626321e-11
3.096011329e-11
1.813188647e-11
1.856280882e-11
4.020836982e-11
2.555701e-11
2.810939622e-11
2.545756639e-11
2.492720042e-11
2.75127345e-11
2.32366589e-11
3.086066967e-11
4.335741775e-11
3.98768911e-11
2.60542281e-11
2.442998233e-11
2.890494517e-11
2.80099526e-11
4.29264954e-11
4.547888161e-11
4.975495722e-11
2.917012815e-11
2.48277568e-11
3.248491544e-11
3.871671554e-11
3.609803359e-11
3.149047925e-11
3.31478729e-11
2.075056843e-11
2.008761098e-11
5.800877757e-12
7.425123529e-12
5.204216045e-12
8.187524606e-12
9.215108665e-12
1.057417145e-11
1.733633753e-11
2.008761098e-11
1.534746515e-11
1.727004178e-11
1.551320452e-11
2.330295465e-11
2.903753666e-11
2.60542281e-11
2.094945567e-11
3.357879524e-11
2.890494517e-11
2.668403768e-11
2.738014301e-11
2.684977705e-11
3.603173784e-11
3.208714096e-11
2.67834813e-11
3.261750693e-11
3.666154742e-11
4.000948259e-11
3.483841441e-11
3.908134215e-11
2.419794721e-11
4.209779858e-11
3.414230908e-11
2.313721528e-11
4.199835496e-11
3.291583779e-11
3.212028884e-11
2.39659121e-11
2.612052384e-11
2.834143133e-11
3.139103563e-11
2.810939622e-11
2.459572169e-11
3.023086008e-11
5.369955409e-12
3.646266019e-12
3.944596875e-12
4.607554333e-12
5.60199052e-12
1.96898365e-11
1.120398104e-11
1.717059816e-11
1.176749488e-11
1.352433214e-11
1.89605833e-11
2.552386213e-11
3.457323143e-11
3.178881011e-11
2.767847387e-11
4.796497208e-11
2.60542281e-11
2.509293978e-11
2.452942594e-11
3.122529627e-11
2.442998233e-11
3.516989314e-11
2.655144619e-11
2.512608766e-11
3.530248464e-11
4.000948259e-11
4.339056562e-11
2.946845901e-11
3.096011329e-11
3.9379673e-11
2.456257382e-11
2.71481079e-11
2.734699514e-11
4.345686137e-11
4.077188366e-11
2.572274937e-11
2.791050898e-11
2.688292492e-11
3.31478729e-11
3.006512072e-11
2.542441851e-11
1.073991082e-11
2.883864942e-12
3.878301129e-12
7.126792673e-12
9.646031013e-12
1.143601615e-11
1.239730446e-11
1.203267786e-11
1.571209175e-11
1.786670349e-11
2.804310047e-11
2.297147592e-11
2.771162174e-11
3.052919094e-11
2.913698028e-11
2.608737597e-11
2.80099526e-11
2.694922067e-11
2.154611738e-11
2.476146105e-11
2.777791749e-11
2.254055357e-11
1.992187161e-11
1.939150564e-11
2.00544631e-11
2.64188547e-11
2.943531113e-11
2.44631302e-11
2.824198771e-11
4.498166352e-11
4.325797413e-11
4.120280601e-11
4.607554333e-11
4.349000924e-11
3.918078576e-11
4.305908689e-11
3.042974732e-11
4.398722733e-11
1.915947053e-11
2.466201744e-11
2.423109509e-11
2.675033343e-11
7.690306512e-12
8.949925682e-13
3.149047925e-12
7.624010766e-12
1.024269273e-11
1.362377576e-11
1.461821195e-11
1.584468324e-11
1.85959567e-11
2.101575142e-11
2.462886956e-11
2.847402282e-11
3.291583779e-11
3.357879524e-11
2.711496003e-11
2.615367172e-11
2.631941108e-11
2.612052384e-11
2.797680473e-11
2.834143133e-11
3.414230908e-11
3.573340698e-11
4.136854538e-11
2.903753666e-11
3.775542723e-11
4.209779858e-11
5.857229141e-11
5.045106255e-11
4.978810509e-11
5.035161893e-11
3.63300687e-11
3.739080063e-11
2.933586751e-11
5.217475194e-11
3.221973246e-11
4.710312739e-11
3.5468224e-11
3.086066967e-11
3.523618889e-11
3.450693569e-11
2.651829832e-11
2.595478448e-11
2.512608766e-11
5.303659664e-12
6.397539469e-12
8.817334191e-12
1.037528422e-11
1.073991082e-11
1.302711405e-11
1.557950026e-11
1.886113968e-11
1.766781625e-11
1.743578114e-11
1.995501948e-11
3.400971759e-11
2.257370144e-11
2.167870887e-11
3.268380268e-11
2.625311533e-11
2.247425782e-11
3.168936649e-11
3.162307074e-11
2.615367172e-11
2.320351103e-11
2.280573655e-11
3.798746234e-11
3.450693569e-11
3.798746234e-11
4.176631985e-11
4.223039007e-11
3.812005383e-11
3.023086008e-11
2.943531113e-11
4.388778372e-11
2.814254409e-11
2.817569196e-11
2.499349616e-11
3.457323143e-11
3.788801872e-11
3.702617403e-11
4.166687623e-11
5.727952437e-11
4.299279115e-11
3.576655486e-11
1.299396618e-11
1.29608183e-11
1.660708432e-11
1.180064275e-11
1.262933957e-11
1.548005664e-11
2.383332061e-11
2.081686418e-11
1.856280882e-11
1.624245772e-11
1.468450769e-11
1.849651308e-11
2.565645362e-11
2.363443338e-11
2.75127345e-11
2.608737597e-11
3.609803359e-11
2.71481079e-11
3.331361226e-11
2.794365685e-11
2.300462379e-11
2.87392058e-11
2.658459406e-11
3.745709637e-11
4.063929217e-11
5.194271683e-11
2.747958663e-11
2.439683445e-11
2.433053871e-11
2.429739083e-11
2.824198771e-11
2.781106536e-11
3.520304102e-11
3.772227936e-11
3.271695055e-11
2.403220785e-11
2.807624834e-11
2.920327602e-11
2.877235367e-11
4.130224963e-11
1.833077371e-11
1.985557587e-11
1.65076407e-11
8.751038445e-12
4.640702206e-12
5.635138393e-12
6.795313944e-12
9.14881292e-12
1.750207689e-11
2.05516812e-11
2.645200257e-11
1.89605833e-11
2.045223758e-11
2.356813763e-11
2.28720323e-11
2.452942594e-11
2.582219299e-11
2.665088981e-11
2.870605793e-11
2.121463865e-11
2.114834291e-11
2.300462379e-11
2.386646849e-11
3.221973246e-11
3.03303037e-11
3.225288033e-11
5.05173583e-11
4.564462098e-11
4.620813482e-11
3.22860282e-11
3.367823886e-11
3.294898566e-11
5.144549874e-11
2.578904511e-11
2.655144619e-11
4.017522195e-11
4.587665609e-11
2.820883984e-11
3.168936649e-11
3.42417527e-11
5.724637649e-11
4.249557305e-11
3.530248464e-11
2.953475475e-11
2.413165147e-11
1.29608183e-11
5.303659664e-12
5.469399028e-12
6.06606074e-12
9.679178886e-12
9.911213996e-12
1.163490339e-11
9.447143776e-12
1.45519162e-11
1.899373117e-11
2.018705459e-11
1.166805126e-11
1.501598642e-11
2.671718556e-11
3.248491544e-11
1.581153537e-11
1.746892902e-11
2.05516812e-11
2.21427791e-11
2.92364239e-11
2.466201744e-11
3.692673041e-11
4.173317198e-11
2.983308561e-11
3.400971759e-11
3.086066967e-11
4.398722733e-11
2.383332061e-11
3.115900052e-11
3.205399309e-11
3.248491544e-11
3.284954204e-11
3.831894107e-11
2.416479934e-11
2.724755152e-11
3.162307074e-11
3.825264532e-11
3.22860282e-11
3.70593219e-11
2.56896015e-11
2.999882497e-11
6.430687342e-12
3.513674527e-12
1.183379062e-11
6.729018198e-12
6.29809585e-12
1.097194593e-11
8.021785241e-12
8.684742699e-12
1.10050938e-11
2.771162174e-11
2.539127064e-11
2.121463865e-11
2.075056843e-11
2.300462379e-11
2.602108022e-11
2.217592697e-11
2.078371631e-11
2.608737597e-11
2.595478448e-11
3.162307074e-11
3.593229422e-11
3.616432933e-11
4.902570401e-11
3.9379673e-11
3.500415378e-11
2.300462379e-11
2.436368658e-11
3.062863456e-11
3.812005383e-11
3.347935163e-11
3.009826859e-11
4.153428474e-11
4.319167839e-11
3.497100591e-11
3.818634958e-11
4.465018479e-11
5.767729884e-11
4.939033062e-11
4.358945286e-11
3.636321657e-11
4.365574861e-11
4.057299643e-11
1.060731933e-11
1.359062789e-12
8.419559716e-12
2.75127345e-12
6.430687342e-12
6.496983088e-12
7.0936448e-12
1.481709919e-11
2.157926526e-11
2.111519504e-11
1.955724501e-11
2.310406741e-11
2.515923553e-11
2.651829832e-11
2.532497489e-11
2.439683445e-11
2.406535572e-11
4.48822199e-11
3.248491544e-11
3.271695055e-11
2.784421323e-11
2.665088981e-11
3.659525168e-11
3.218658458e-11
2.99656771e-11
3.77885751e-11
3.444063994e-11
3.391027397e-11
4.411981883e-11
2.989938135e-11
3.102640903e-11
3.172251436e-11
4.392093159e-11
3.503730165e-11
3.682728679e-11
3.792116659e-11
3.802061021e-11
6.334558511e-11
4.594295184e-11
4.150113687e-11
3.686043466e-11
3.288268991e-11
2.51923834e-12
3.215343671e-12
1.33254449e-11
7.922341622e-12
1.06404672e-11
9.413995903e-12
1.538061302e-11
1.826447797e-11
1.743578114e-11
2.403220785e-11
1.799929498e-11
1.949094926e-11
2.038594183e-11
2.075056843e-11
2.40985036e-11
2.761217812e-11
1.945780139e-11
2.549071426e-11
2.247425782e-11
1.939150564e-11
2.094945567e-11
2.539127064e-11
2.840772707e-11
2.068427269e-11
2.25074057e-11
2.529182702e-11
2.25074057e-11
2.303777166e-11
2.022020247e-11
3.543507613e-11
2.303777166e-11
2.993252923e-11
2.741329089e-11
2.704866428e-11
1.919261841e-11
2.585534086e-11
4.080503154e-11
5.449510304e-11
3.238547182e-11
2.893809304e-11
4.209779858e-11
3.082752179e-11
3.149047925e-12
1.524802153e-12
3.414230908e-12
6.231800105e-12
5.436251155e-12
6.828461817e-12
8.220672479e-12
9.712326759e-12
1.378951513e-11
2.346869401e-11
2.469516531e-11
3.076122605e-11
2.423109509e-11
2.240796208e-11
2.588848873e-11
2.784421323e-11
2.850717069e-11
3.391027397e-11
2.549071426e-11
3.165621862e-11
2.963419837e-11
2.618681959e-11
2.406535572e-11
2.439683445e-11
2.456257382e-11
2.366758125e-11
2.817569196e-11
2.174500462e-11
2.989938135e-11
4.21972422e-11
3.457323143e-11
3.629692082e-11
3.90150464e-11
4.723571888e-11
3.838523681e-11
3.11921484e-11
2.986623348e-11
3.417545696e-11
4.988754871e-11
4.425241032e-11
4.726886675e-11
3.739080063e-11
7.491419275e-12
1.25961917e-12
5.204216045e-12
9.579735267e-12
1.130342466e-11
1.226471297e-11
1.50491343e-11
1.50491343e-11
2.356813763e-11
1.872854819e-11
2.588848873e-11
3.5468224e-11
2.767847387e-11
2.728069939e-11
2.75127345e-11
2.588848873e-11
2.897124091e-11
3.483841441e-11
3.918078576e-11
2.515923553e-11
2.658459406e-11
3.026400796e-11
2.847402282e-11
3.646266019e-11
4.445129756e-11
3.19214016e-11
3.212028884e-11
3.981059535e-11
4.213094645e-11
4.786552846e-11
3.38771261e-11
4.567776885e-11
3.772227936e-11
3.364509099e-11
4.551202949e-11
5.28377094e-11
4.567776885e-11
4.004263046e-11
4.037410919e-11
3.328046439e-11
3.212028884e-11
2.926957177e-11
2.386646849e-11
3.977744748e-12
4.872737316e-12
6.86160969e-12
6.828461817e-12
1.176749488e-11
8.088080987e-12
9.61288314e-12
1.564579601e-11
1.710430241e-11
2.273944081e-11
2.220907484e-11
1.405469811e-11
1.670652794e-11
1.524802153e-11
1.385581087e-11
2.39659121e-11
1.988872374e-11
3.444063994e-11
2.684977705e-11
2.784421323e-11
4.295964327e-11
3.457323143e-11
4.047355281e-11
3.162307074e-11
3.765598361e-11
4.968866147e-11
3.115900052e-11
3.089381754e-11
4.302593902e-11
4.010892621e-11
4.203150283e-11
3.788801872e-11
5.181012534e-11
5.628508818e-11
5.028532319e-11
2.917012815e-11
2.794365685e-11
3.66946953e-11
2.976678986e-11
2.658459406e-11
2.307091954e-11
1.922576628e-12
7.292532037e-13
2.718125578e-12
2.883864942e-12
5.237363918e-12
8.253820351e-12
1.610986623e-11
1.073991082e-11
1.601042261e-11
1.607671836e-11
1.640819708e-11
1.634190134e-11
1.866225244e-11
2.118149078e-11
2.747958663e-11
3.715876552e-11
2.615367172e-11
2.850717069e-11
3.016456434e-11
3.016456434e-11
3.732450488e-11
2.220907484e-11
2.44631302e-11
3.802061021e-11
4.319167839e-11
3.729135701e-11
5.535694774e-11
3.629692082e-11
3.344620375e-11
3.871671554e-11
4.461703692e-11
6.109152975e-11
5.714693287e-11
4.289334753e-11
3.858412405e-11
4.246242518e-11
3.676099104e-11
3.470582292e-11
3.304842928e-11
3.311472502e-11
3.298213353e-11
4.027466557e-11
2.784421323e-12
3.215343671e-12
4.110336239e-12
5.966617121e-12
7.590862893e-12
1.001065761e-11
2.05516812e-11
1.789985136e-11
2.578904511e-11
1.538061302e-11
1.41872896e-11
1.730318965e-11
1.644134496e-11
2.688292492e-11
3.42417527e-11
2.973364199e-11
2.804310047e-11
2.134723015e-11
2.83745792e-11
2.018705459e-11
3.175566224e-11
2.658459406e-11
2.247425782e-11
2.204333548e-11
3.758968787e-11
2.757903025e-11
2.210963122e-11
2.330295465e-11
2.429739083e-11
2.479460893e-11
3.497100591e-11
3.407601334e-11
3.924708151e-11
4.448444543e-11
4.657276142e-11
4.789867634e-11
3.006512072e-11
4.262816455e-11
3.835208894e-11
3.321416864e-11
3.089381754e-11
3.076122605e-11
5.535694774e-12
4.607554333e-12
5.734582011e-12
8.187524606e-12
9.61288314e-12
1.73694854e-11
1.349118427e-11
1.233100872e-11
1.262933957e-11
1.286137468e-11
1.604357048e-11
1.789985136e-11
2.449627807e-11
2.247425782e-11
2.989938135e-11
1.856280882e-11
2.263999719e-11
2.068427269e-11
2.061797694e-11
1.657393645e-11
1.955724501e-11
1.915947053e-11
1.816503435e-11
2.25074057e-11
2.303777166e-11
3.149047925e-11
2.7645326e-11
2.366758125e-11
2.081686418e-11
2.134723015e-11
2.439683445e-11
2.880550155e-11
2.114834291e-11
1.965668863e-11
3.19214016e-11
3.198769735e-11
4.053984855e-11
3.235232395e-11
2.254055357e-11
3.129159201e-11
2.525867915e-11
2.330295465e-11
3.31478729e-13
2.187759611e-12
3.381083036e-12
4.010892621e-12
8.784186318e-12
6.563278834e-12
1.18669385e-11
1.445247258e-11
1.203267786e-11
1.746892902e-11
2.303777166e-11
1.548005664e-11
2.356813763e-11
1.902687904e-11
1.667338007e-11
1.617616197e-11
1.660708432e-11
1.763466838e-11
2.104889929e-11
2.015390672e-11
2.366758125e-11
2.022020247e-11
3.334676013e-11
2.867291006e-11
3.768913148e-11
4.84290423e-11
2.718125578e-11
2.784421323e-11
2.807624834e-11
3.009826859e-11
3.009826859e-11
3.470582292e-11
3.404286547e-11
3.324731652e-11
3.414230908e-11
3.013141646e-11
3.308157715e-11
5.462769453e-11
2.555701e-11
2.946845901e-11
3.172251436e-11
3.145733138e-11
2.946845901e-11
3.825264532e-11
1.65076407e-11
2.91038324e-11
3.908134215e-11
1.793299924e-11
1.269563532e-11
2.138037802e-11
4.365574861e-11
5.79756297e-11
3.11921484e-11
4.063929217e-11
6.324614149e-11
2.781106536e-11
3.70593219e-11
3.659525168e-11
4.388778372e-11
3.523618889e-11
3.914763789e-11
4.69705359e-11
4.96555136e-11
3.652895593e-11
4.614183907e-11
5.913580525e-11
5.502546901e-11
7.279272888e-11
9.284719199e-11
6.357762022e-11
5.081568915e-11
5.084883702e-11
5.568842647e-11
5.333492749e-11
5.446195517e-11
5.194271683e-11
5.44288073e-11
5.273826578e-11
5.048421042e-11
6.059431166e-11
5.681545415e-11
5.999764994e-11
5.764415097e-11
5.648397542e-11
2.008761098e-11
2.502664404e-11
4.958921785e-11
3.168936649e-11
4.5379438e-11
6.685925963e-11
5.476028603e-11
7.849416302e-11
6.45720564e-11
1.107470433e-10
3.682728679e-11
4.76997891e-11
7.16657012e-11
4.027466557e-11
3.599858997e-11
5.615249669e-11
6.477094364e-11
4.640702206e-11
5.774359459e-11
7.736713534e-11
6.327928936e-11
6.927905436e-11
5.44288073e-11
6.364391596e-11
6.15224521e-11
9.321181859e-11
6.791999157e-11
9.394107179e-11
5.893691801e-11