/*--------------------------------*- C++ -*----------------------------------*\
| =========                 |                                                 |
| \\      /  F ield         | OpenFOAM: The Open Source CFD Toolbox           |
|  \\    /   O peration     | Version:  v1706                                 |
|   \\  /    A nd           | Web:      www.OpenFOAM.com                      |
|    \\/     M anipulation  |                                                 |
\*---------------------------------------------------------------------------*/
FoamFile
{
    version     2.0;
    format      ascii;
    class       volScalarField;
    location    "3.996";
    object      rhoN_mixture;
}
// * * * * * * * * * * * * * * * * * * * * * * * * * * * * * * * * * * * * * //

dimensions      [0 -3 0 0 0 0 0];


internalField   nonuniform List<scalar> 
50792
(
3.045211215e+14
5.659849533e+14
1.112001308e+15
7.675429907e+14
9.397721495e+14
1.376585234e+15
1.585631495e+15
1.453963551e+15
1.723539626e+15
1.622448598e+15
1.99810785e+15
1.772837103e+15
2.383751402e+15
2.08422243e+15
2.253331495e+15
2.845525234e+15
2.302004953e+15
2.384999439e+15
2.516667383e+15
2.472362056e+15
3.022122523e+15
3.029610748e+15
2.759410654e+15
2.986553458e+15
3.319155421e+15
2.726961682e+15
3.283586355e+15
3.747232243e+15
3.198719813e+15
3.312291215e+15
3.784673364e+15
3.289826542e+15
3.20995215e+15
3.322275514e+15
3.337251963e+15
3.201215888e+15
3.441463084e+15
3.078908224e+15
3.237408972e+15
3.399029813e+15
3.640525047e+15
3.633660841e+15
4.393091589e+14
2.421192523e+14
3.513225234e+14
5.129433645e+14
8.586497196e+14
9.397721495e+14
9.93437757e+14
1.268005981e+15
1.206228131e+15
1.467067944e+15
1.468315981e+15
1.646785327e+15
1.759108692e+15
2.045533271e+15
2.331333832e+15
2.236482991e+15
2.034300935e+15
2.216514393e+15
2.319477477e+15
2.360038692e+15
2.358166636e+15
2.439289065e+15
2.680784299e+15
2.733825888e+15
3.004025981e+15
2.644591215e+15
2.632110841e+15
2.843029159e+15
2.911671215e+15
2.989673551e+15
2.960968692e+15
2.894198692e+15
2.777507196e+15
2.519787477e+15
2.547244299e+15
3.073916075e+15
2.718849439e+15
3.465799813e+15
3.14318215e+15
3.055819533e+15
2.428056729e+15
2.541628131e+15
2.283908411e+14
2.502314953e+14
4.574057009e+14
6.464833645e+14
7.881356075e+14
1.032750935e+15
1.546318318e+15
1.249909439e+15
1.427754766e+15
1.749748411e+15
1.852087477e+15
1.591247664e+15
2.125407664e+15
1.931961869e+15
2.06487785e+15
1.888904579e+15
2.174081121e+15
2.564716822e+15
2.728833738e+15
2.710737196e+15
2.633358879e+15
2.466121869e+15
2.86174972e+15
2.912919252e+15
2.580941308e+15
2.858629626e+15
2.748802336e+15
2.347558318e+15
2.913543271e+15
3.012762243e+15
2.860501682e+15
3.101996916e+15
2.848021308e+15
3.123213551e+15
3.21931243e+15
2.989673551e+15
3.075164112e+15
3.171262991e+15
3.355348505e+15
3.003401963e+15
2.938504019e+15
2.96658486e+15
2.32758972e+14
3.60058785e+14
4.280768224e+14
6.0093e+14
7.918797196e+14
7.556866355e+14
9.921897196e+14
1.02526271e+15
1.244293271e+15
1.549438411e+15
2.015580374e+15
2.029308785e+15
2.28453243e+15
1.80279e+15
2.07486215e+15
2.520411495e+15
2.537884019e+15
2.428056729e+15
2.244595234e+15
3.275474112e+15
3.221808505e+15
3.123213551e+15
2.519163458e+15
3.204335981e+15
3.457063551e+15
2.859253645e+15
2.688896542e+15
2.655823551e+15
3.093884673e+15
3.311043178e+15
2.791859626e+15
2.945368224e+15
2.765026822e+15
2.638351028e+15
2.910423178e+15
2.650207383e+15
2.806212056e+15
3.11447729e+15
3.719775421e+15
3.203087944e+15
3.105741028e+15
3.053323458e+15
2.770642991e+14
4.923507477e+14
4.099802804e+14
6.882926168e+14
7.887596262e+14
9.098192523e+14
1.44023514e+15
1.185011495e+15
1.453963551e+15
1.558798692e+15
1.646785327e+15
1.47393215e+15
1.815270374e+15
1.791557664e+15
2.180321308e+15
2.282036355e+15
2.485466449e+15
2.453641495e+15
2.768146916e+15
2.853013458e+15
2.80933215e+15
3.820866449e+15
3.566890841e+15
3.079532243e+15
3.564394766e+15
3.350980374e+15
3.027114673e+15
2.677664206e+15
2.809956168e+15
3.276098131e+15
3.231168785e+15
2.512923271e+15
2.853637477e+15
2.479226262e+15
2.679536262e+15
2.92851972e+15
2.860501682e+15
3.106989065e+15
3.413382243e+15
2.879222243e+15
2.939752056e+15
2.683904393e+15
6.427392523e+14
2.433672897e+14
5.990579439e+14
5.522565421e+14
7.575586916e+14
7.812714019e+14
8.6801e+14
1.155058598e+15
1.379705327e+15
1.268005981e+15
1.399673925e+15
1.985627477e+15
1.66925e+15
1.949434393e+15
1.837735047e+15
2.013084299e+15
2.058013645e+15
2.177201215e+15
2.715105327e+15
2.88047028e+15
2.944744206e+15
3.490136542e+15
3.740992056e+15
3.598091776e+15
2.695136729e+15
2.855509533e+15
2.977193178e+15
3.409638131e+15
3.51010514e+15
2.589053551e+15
3.226176636e+15
2.562220748e+15
3.042091121e+15
2.801843925e+15
2.74693028e+15
2.973449065e+15
2.545372243e+15
2.848021308e+15
2.648959346e+15
2.963464766e+15
2.917287383e+15
2.474234112e+15
4.492934579e+14
2.152864486e+14
3.943798131e+14
5.035830841e+14
6.115383178e+14
7.818954206e+14
1.327911776e+15
1.328535794e+15
1.283606449e+15
1.310439252e+15
1.492028692e+15
1.621200561e+15
1.923849626e+15
1.705443084e+15
1.638673084e+15
1.727907757e+15
2.348806355e+15
2.237731028e+15
2.454265514e+15
2.986553458e+15
2.956600561e+15
3.464551776e+15
3.375941121e+15
2.929143738e+15
3.48140028e+15
3.468919907e+15
2.99528972e+15
3.157534579e+15
2.662063738e+15
2.85675757e+15
3.351604393e+15
3.158158598e+15
2.92352757e+15
2.76128271e+15
3.017130374e+15
2.647711308e+15
2.787491495e+15
3.302306916e+15
3.164398785e+15
3.579995234e+15
3.360964673e+15
2.637102991e+15
3.974999065e+14
2.464873832e+14
3.60058785e+14
5.141914019e+14
6.75812243e+14
8.586497196e+14
1.167538972e+15
1.213092336e+15
1.272998131e+15
1.619952523e+15
1.563166822e+15
1.566910935e+15
1.757236636e+15
2.024940654e+15
2.127903738e+15
2.590925607e+15
2.972201028e+15
2.725713645e+15
2.582189346e+15
2.720097477e+15
2.403095981e+15
2.824308598e+15
2.91416729e+15
2.652079439e+15
3.054571495e+15
3.363460748e+15
3.380309252e+15
2.992169626e+15
3.028986729e+15
3.201215888e+15
3.435846916e+15
3.104492991e+15
3.00465e+15
3.000905888e+15
3.035850935e+15
2.782499346e+15
3.420246449e+15
3.618684393e+15
3.389669533e+15
2.927271682e+15
2.973449065e+15
2.944744206e+15
4.960948598e+14
3.781553271e+14
6.633318692e+14
7.444542991e+14
1.011534299e+15
1.114497383e+15
1.126353738e+15
1.498892897e+15
1.577519252e+15
1.646161308e+15
1.676738224e+15
1.896392804e+15
1.77408514e+15
2.109183178e+15
2.128527757e+15
2.340694112e+15
2.374391121e+15
2.154112523e+15
2.44178514e+15
2.684528411e+15
2.369398972e+15
3.093260654e+15
2.261443738e+15
2.406216075e+15
2.819316449e+15
3.131325794e+15
2.630862804e+15
2.882342336e+15
2.706993084e+15
3.193727664e+15
3.463303738e+15
3.204335981e+15
3.364084766e+15
2.933511869e+15
3.271105981e+15
2.826804673e+15
3.709167103e+15
3.936933925e+15
3.30043486e+15
3.545674206e+15
3.223056542e+15
2.597165794e+15
6.471073832e+14
2.227746729e+14
5.004629907e+14
4.923507477e+14
1.071440093e+15
1.136962056e+15
1.150690467e+15
1.363480841e+15
1.598735888e+15
1.740388131e+15
1.767844953e+15
2.185313458e+15
1.905129065e+15
1.977515234e+15
2.07486215e+15
2.215266355e+15
2.028684766e+15
2.323845607e+15
2.907303084e+15
2.839285047e+15
3.307923084e+15
2.655199533e+15
2.968456916e+15
2.642719159e+15
2.750674393e+15
2.526027664e+15
2.959096636e+15
3.03335486e+15
3.204335981e+15
3.637404953e+15
2.875478131e+15
3.077036168e+15
2.463001776e+15
3.18124729e+15
2.672048037e+15
2.973449065e+15
3.331011776e+15
3.441463084e+15
3.048331308e+15
3.446455234e+15
3.293570654e+15
2.765650841e+15
6.377471028e+14
2.421192523e+14
4.692620561e+14
6.421152336e+14
1.088912617e+15
1.264261869e+15
1.074560187e+15
1.452715514e+15
1.895144766e+15
1.779701308e+15
1.917609439e+15
1.709811215e+15
1.883288411e+15
1.770965047e+15
2.282036355e+15
2.233986916e+15
2.302628972e+15
2.272052056e+15
2.225874673e+15
2.514171308e+15
2.434920935e+15
3.220560467e+15
3.005898037e+15
2.738194019e+15
2.553484486e+15
2.625246636e+15
2.683280374e+15
3.019626449e+15
2.903558972e+15
3.055195514e+15
2.996537757e+15
2.678288224e+15
3.189359533e+15
2.981561308e+15
3.234288879e+15
2.841781121e+15
3.306675047e+15
3.344740187e+15
3.545674206e+15
3.084524393e+15
3.208080093e+15
2.758162617e+15
4.867345794e+14
4.08732243e+14
5.085752336e+14
6.683240187e+14
8.43673271e+14
1.289222617e+15
1.048975421e+15
1.49764486e+15
1.81215028e+15
1.693586729e+15
1.883288411e+15
2.497322804e+15
2.26518785e+15
2.288276542e+15
2.105439065e+15
2.132271869e+15
2.36066271e+15
2.516043364e+15
3.11447729e+15
3.059563645e+15
2.844901215e+15
2.906055047e+15
2.786243458e+15
2.662687757e+15
2.55161243e+15
2.76128271e+15
2.934759907e+15
2.845525234e+15
3.204335981e+15
2.859253645e+15
3.287954486e+15
3.010890187e+15
3.153166449e+15
2.467993925e+15
2.361286729e+15
2.550988411e+15
2.631486822e+15
2.944744206e+15
2.889206542e+15
2.977193178e+15
2.772515047e+15
2.376887196e+15
7.893836449e+14
3.301058879e+14
4.137243925e+14
5.909457009e+14
8.461693458e+14
1.191875701e+15
1.431498879e+15
1.325415701e+15
1.598111869e+15
1.699826916e+15
1.493900748e+15
2.253331495e+15
2.123535607e+15
2.063629813e+15
1.866439907e+15
1.855831589e+15
2.253331495e+15
2.273924112e+15
2.79934785e+15
3.272354019e+15
2.738818037e+15
2.545996262e+15
3.213696262e+15
2.80933215e+15
2.934135888e+15
2.703872991e+15
2.91416729e+15
3.332259813e+15
3.698558785e+15
3.51010514e+15
3.072044019e+15
3.125085607e+15
3.557530561e+15
3.492632617e+15
3.383429346e+15
3.455191495e+15
3.394037664e+15
2.854261495e+15
2.764402804e+15
2.879222243e+15
2.769394953e+15
2.303877009e+15
9.210515888e+14
6.583397196e+14
5.691050467e+14
7.051411215e+14
9.85325514e+14
1.110129252e+15
1.12073757e+15
1.739140093e+15
1.625568692e+15
1.561294766e+15
1.554430561e+15
1.90762514e+15
1.428378785e+15
2.146624299e+15
2.053645514e+15
2.053021495e+15
2.028060748e+15
2.33195785e+15
2.379383271e+15
2.180321308e+15
2.301380935e+15
2.684528411e+15
3.015882336e+15
3.409014112e+15
3.292946636e+15
3.28608243e+15
3.46704785e+15
3.647389252e+15
3.647389252e+15
2.841781121e+15
3.010266168e+15
3.396533738e+15
3.273602056e+15
2.846149252e+15
2.915415327e+15
3.863923738e+15
3.583115327e+15
3.141310093e+15
3.283586355e+15
3.032730841e+15
3.079532243e+15
2.531019813e+15
1.332903925e+15
2.739442056e+14
5.254237383e+14
7.02021028e+14
8.031120561e+14
1.004046075e+15
1.365352897e+15
1.529469813e+15
1.511373271e+15
1.744756262e+15
1.641169159e+15
1.699826916e+15
1.589999626e+15
1.897640841e+15
2.109807196e+15
2.126655701e+15
1.873304112e+15
2.342566168e+15
2.660815701e+15
2.511051215e+15
2.118543458e+15
2.512923271e+15
2.831172804e+15
3.202463925e+15
2.953480467e+15
3.184991402e+15
2.467369907e+15
2.81869243e+15
3.15254243e+15
3.657373551e+15
3.374069065e+15
3.154414486e+15
3.191231589e+15
3.038971028e+15
3.607452056e+15
3.094508692e+15
3.262993738e+15
3.363460748e+15
3.200591869e+15
2.608398131e+15
2.824308598e+15
2.304501028e+15
6.701960748e+14
2.090462617e+14
3.332259813e+14
4.91726729e+14
8.59897757e+14
9.354040187e+14
9.759652336e+14
1.3354e+15
1.423386636e+15
1.697330841e+15
1.72166757e+15
1.618704486e+15
1.731651869e+15
2.143504206e+15
2.006844112e+15
2.368774953e+15
2.823684579e+15
2.663935794e+15
2.550988411e+15
3.193727664e+15
2.844277196e+15
3.063307757e+15
2.528523738e+15
2.910423178e+15
2.797475794e+15
2.821812523e+15
3.501992897e+15
3.458935607e+15
2.942248131e+15
3.262993738e+15
2.786243458e+15
2.55161243e+15
2.874854112e+15
2.589053551e+15
3.186239439e+15
2.535387944e+15
3.050203364e+15
2.511051215e+15
2.615886355e+15
2.780003271e+15
2.773139065e+15
2.748178318e+15
4.686380374e+14
2.439913084e+14
3.58186729e+14
4.99838972e+14
7.68791028e+14
8.280728037e+14
1.113873364e+15
1.467067944e+15
1.449595421e+15
1.829622804e+15
1.321671589e+15
1.613712336e+15
2.124159626e+15
1.839607103e+15
2.233362897e+15
2.102942991e+15
2.00809215e+15
2.377511215e+15
3.239281028e+15
2.633358879e+15
2.254579533e+15
2.381879346e+15
2.524155607e+15
2.934759907e+15
2.969704953e+15
2.512923271e+15
3.360964673e+15
2.974073084e+15
3.34786028e+15
3.075788131e+15
2.984057383e+15
3.010266168e+15
3.326019626e+15
3.550042336e+15
3.870163925e+15
3.71540729e+15
3.787793458e+15
3.493256636e+15
3.470791963e+15
3.865795794e+15
3.171887009e+15
2.489834579e+15
9.616128037e+14
2.858005607e+14
3.812754206e+14
4.748782243e+14
6.658279439e+14
7.831434579e+14
1.024638692e+15
1.103265047e+15
1.591871682e+15
1.601855981e+15
1.581887383e+15
1.655521589e+15
1.729779813e+15
1.77907729e+15
1.969402991e+15
2.422440561e+15
2.228994766e+15
2.504811028e+15
3.126333645e+15
3.070171963e+15
2.510427196e+15
2.607150093e+15
2.449273364e+15
3.061435701e+15
2.650207383e+15
2.865493832e+15
2.657071589e+15
2.180321308e+15
2.409960187e+15
2.32758972e+15
2.765650841e+15
2.783123364e+15
2.569084953e+15
2.708241121e+15
3.077660187e+15
3.586235421e+15
3.818370374e+15
2.932263832e+15
3.178127196e+15
3.294818692e+15
2.94724028e+15
2.374391121e+15
6.096662617e+14
2.221506542e+14
4.580297196e+14
5.553766355e+14
7.076371963e+14
1.012158318e+15
1.425258692e+15
1.17814729e+15
1.430250841e+15
1.649281402e+15
2.022444579e+15
1.838983084e+15
2.15099243e+15
2.32259757e+15
2.554732523e+15
2.396855794e+15
2.517291402e+15
2.704497009e+15
2.755666542e+15
2.828676729e+15
2.682032336e+15
2.716977383e+15
2.853637477e+15
3.684206355e+15
3.00964215e+15
2.886086449e+15
3.614316262e+15
3.273602056e+15
3.283586355e+15
3.493256636e+15
3.320403458e+15
3.646141215e+15
2.94287215e+15
2.906055047e+15
3.105741028e+15
3.146302243e+15
3.468295888e+15
3.045211215e+15
2.695760748e+15
2.798723832e+15
2.837412991e+15
2.40871215e+15
8.848585047e+14
2.396231776e+14
4.187165421e+14
7.244857009e+14
9.890696262e+14
1.062079813e+15
1.310439252e+15
1.261141776e+15
1.379081308e+15
2.050525421e+15
2.226498692e+15
1.828998785e+15
2.047405327e+15
2.27954028e+15
2.223378598e+15
2.634606916e+15
2.605902056e+15
2.886710467e+15
2.17470514e+15
3.067675888e+15
2.879846262e+15
2.87111e+15
3.092636636e+15
3.732879813e+15
3.149422336e+15
3.126333645e+15
3.370948972e+15
3.297314766e+15
2.736321963e+15
2.856133551e+15
2.816820374e+15
2.511675234e+15
2.743186168e+15
3.078284206e+15
2.639599065e+15
2.374391121e+15
2.801219907e+15
2.846149252e+15
2.988425514e+15
2.73757e+15
2.678288224e+15
2.572829065e+15
1.430250841e+15
2.957848598e+14
6.115383178e+14
7.58806729e+14
1.163170841e+15
1.113249346e+15
1.296086822e+15
1.551310467e+15
1.847095327e+15
1.92197757e+15
1.916985421e+15
2.526651682e+15
2.168464953e+15
3.380309252e+15
2.472986075e+15
2.753170467e+15
3.586859439e+15
3.261121682e+15
3.097628785e+15
3.336627944e+15
3.780305234e+15
3.234288879e+15
2.996537757e+15
2.938504019e+15
3.19996785e+15
3.065803832e+15
3.394037664e+15
3.158782617e+15
3.349108318e+15
2.801219907e+15
2.977193178e+15
2.79934785e+15
2.90917514e+15
2.634606916e+15
2.562844766e+15
2.89981486e+15
2.53226785e+15
2.902310935e+15
2.421192523e+15
2.160976729e+15
2.540380093e+15
2.332581869e+15
8.798663551e+14
2.08422243e+14
6.539715888e+14
5.971858879e+14
8.286968224e+14
9.784613084e+14
1.168787009e+15
1.168162991e+15
1.25926972e+15
1.488284579e+15
1.702322991e+15
1.961290748e+15
2.220258505e+15
2.338198037e+15
3.068299907e+15
2.697008785e+15
2.726337664e+15
3.138814019e+15
2.63273486e+15
2.891702617e+15
2.960344673e+15
2.910423178e+15
3.453943458e+15
3.656125514e+15
2.813076262e+15
3.00465e+15
3.153790467e+15
2.951608411e+15
2.703872991e+15
2.942248131e+15
3.215568318e+15
3.013386262e+15
3.20995215e+15
3.532569813e+15
2.688896542e+15
3.235536916e+15
2.730705794e+15
2.901686916e+15
2.248963364e+15
2.580941308e+15
2.378135234e+15
1.975643178e+15
3.020250467e+14
2.0031e+14
4.162204673e+14
4.443013084e+14
7.706630841e+14
8.511614953e+14
9.054511215e+14
1.24491729e+15
1.277366262e+15
1.544446262e+15
1.66425785e+15
1.511373271e+15
1.696082804e+15
2.182193364e+15
1.905753084e+15
2.383127383e+15
2.412456262e+15
2.711985234e+15
2.608398131e+15
2.260195701e+15
2.512923271e+15
2.821812523e+15
3.24801729e+15
2.963464766e+15
3.727887664e+15
2.824308598e+15
2.985929439e+15
3.077036168e+15
2.778131215e+15
3.095756729e+15
3.476408131e+15
4.190909533e+15
3.918837383e+15
3.367828879e+15
3.769696916e+15
3.144430187e+15
3.706671028e+15
3.622428505e+15
3.299186822e+15
2.877974206e+15
2.680784299e+15
2.476730187e+15
8.985869159e+14
5.17935514e+14
4.555336449e+14
6.989009346e+14
8.898506542e+14
8.480414019e+14
1.048351402e+15
1.145074299e+15
1.435242991e+15
1.676738224e+15
2.023068598e+15
1.932585888e+15
2.16534486e+15
2.165968879e+15
2.264563832e+15
2.119167477e+15
2.477978224e+15
2.965336822e+15
2.753170467e+15
2.238979065e+15
2.273924112e+15
2.463001776e+15
2.735073925e+15
2.490458598e+15
3.320403458e+15
3.054571495e+15
3.102620935e+15
2.424936636e+15
2.409336168e+15
2.336325981e+15
2.590925607e+15
3.12383757e+15
3.335379907e+15
3.154414486e+15
2.770642991e+15
2.705745047e+15
3.018378411e+15
3.586235421e+15
3.079532243e+15
3.108861121e+15
2.835540935e+15
2.370022991e+15
1.105137103e+15
2.483594393e+14
3.906357009e+14
5.329119626e+14
6.421152336e+14
7.744071963e+14
1.04460729e+15
1.181891402e+15
1.437739065e+15
1.72665972e+15
1.906377103e+15
1.994987757e+15
2.245843271e+15
2.195921776e+15
2.547868318e+15
2.712609252e+15
2.588429533e+15
2.793107664e+15
2.425560654e+15
2.978441215e+15
2.319477477e+15
2.60403e+15
2.617134393e+15
2.731953832e+15
2.903558972e+15
3.194975701e+15
2.930391776e+15
2.832420841e+15
2.836164953e+15
2.651455421e+15
2.917287383e+15
3.20995215e+15
3.100748879e+15
3.331635794e+15
2.99029757e+15
2.941000093e+15
2.610894206e+15
2.904182991e+15
2.506059065e+15
2.47548215e+15
2.658943645e+15
2.347558318e+15
1.119489533e+15
2.340070093e+14
4.205885981e+14
4.99838972e+14
6.926607477e+14
9.553726168e+14
1.334775981e+15
1.233060935e+15
1.308567196e+15
1.506381121e+15
1.404042056e+15
1.653025514e+15
2.200289907e+15
2.578445234e+15
2.720721495e+15
2.695760748e+15
2.702624953e+15
2.495450748e+15
2.186561495e+15
2.428056729e+15
2.238979065e+15
2.077358224e+15
2.831796822e+15
2.714481308e+15
2.66580785e+15
2.96159271e+15
3.513225234e+15
3.66735785e+15
3.282338318e+15
3.264865794e+15
3.341620093e+15
2.687648505e+15
3.311043178e+15
3.077036168e+15
3.458311589e+15
3.156910561e+15
2.42743271e+15
2.73757e+15
3.008394112e+15
2.969080935e+15
2.612142243e+15
3.150046355e+15
3.812754206e+14
2.258947664e+14
6.545956075e+14
8.673859813e+14
7.394621495e+14
9.759652336e+14
1.037743084e+15
1.16379486e+15
1.324167664e+15
1.437739065e+15
1.751620467e+15
1.97439514e+15
2.018700467e+15
2.467993925e+15
2.417448411e+15
2.396855794e+15
3.04271514e+15
3.015258318e+15
2.684528411e+15
3.079532243e+15
2.994041682e+15
2.375639159e+15
2.487962523e+15
2.574077103e+15
3.017754393e+15
2.660191682e+15
3.145054206e+15
3.084524393e+15
3.531321776e+15
3.142558131e+15
3.506361028e+15
3.39091757e+15
3.273602056e+15
3.394037664e+15
3.115725327e+15
3.084524393e+15
2.881718318e+15
2.848645327e+15
2.539132056e+15
2.622750561e+15
2.351926449e+15
2.77563514e+15
6.483554206e+14
3.407142056e+14
4.137243925e+14
9.079471963e+14
9.759652336e+14
1.320423551e+15
1.180643364e+15
1.191875701e+15
1.384073458e+15
1.491404673e+15
1.83149486e+15
2.050525421e+15
1.842103178e+15
2.459257664e+15
2.376263178e+15
2.429304766e+15
2.652703458e+15
2.650831402e+15
2.604654019e+15
2.728833738e+15
3.230544766e+15
2.757538598e+15
2.763778785e+15
2.531643832e+15
2.92851972e+15
2.845525234e+15
3.519465421e+15
3.558778598e+15
3.707919065e+15
3.611196168e+15
3.344740187e+15
3.462055701e+15
3.299810841e+15
3.68171028e+15
3.668605888e+15
3.362836729e+15
3.545674206e+15
3.070795981e+15
3.365956822e+15
3.016506355e+15
2.733825888e+15
2.591549626e+15
9.859495327e+14
3.999959813e+14
9.054511215e+14
9.291638318e+14
7.50694486e+14
8.380571028e+14
1.188755607e+15
1.279862336e+15
1.545694299e+15
1.580639346e+15
1.716675421e+15
1.994363738e+15
2.255203551e+15
2.130399813e+15
2.280164299e+15
2.188433551e+15
2.387495514e+15
2.97594514e+15
2.502314953e+15
2.92851972e+15
2.823684579e+15
2.450521402e+15
2.559724673e+15
3.099500841e+15
3.196223738e+15
2.987801495e+15
3.365956822e+15
2.969704953e+15
3.511977196e+15
3.509481121e+15
2.921031495e+15
3.048331308e+15
3.169390935e+15
2.72820972e+15
2.770018972e+15
3.47703215e+15
3.161278692e+15
3.163774766e+15
3.306675047e+15
3.42898271e+15
3.282338318e+15
3.140686075e+15
5.616168224e+14
4.661419626e+14
7.307258879e+14
8.711300935e+14
8.524095327e+14
1.01590243e+15
1.231188879e+15
1.531341869e+15
1.641169159e+15
1.437739065e+15
1.695458785e+15
1.894520748e+15
2.335077944e+15
2.376887196e+15
2.625870654e+15
2.326965701e+15
2.69451271e+15
2.667679907e+15
3.25737757e+15
2.612766262e+15
2.828676729e+15
2.79497972e+15
2.804964019e+15
4.037400935e+15
3.263617757e+15
3.289202523e+15
2.874854112e+15
2.798723832e+15
2.426184673e+15
2.325093645e+15
2.58967757e+15
2.404968037e+15
2.265811869e+15
2.762530748e+15
2.524779626e+15
2.728833738e+15
2.907927103e+15
3.155038505e+15
2.948488318e+15
3.006522056e+15
2.288900561e+15
2.335701963e+15
5.553766355e+14
3.937557944e+14
4.405571963e+14
4.954708411e+14
6.608357944e+14
9.229236449e+14
1.388441589e+15
1.193123738e+15
1.701074953e+15
1.66925e+15
1.484540467e+15
1.696082804e+15
1.75973271e+15
2.318853458e+15
2.20840215e+15
2.149744393e+15
2.517915421e+15
1.95068243e+15
2.483594393e+15
2.340694112e+15
3.054571495e+15
2.633358879e+15
2.836164953e+15
2.464873832e+15
3.058315607e+15
2.581565327e+15
2.849893364e+15
2.588429533e+15
2.944120187e+15
2.605278037e+15
3.11447729e+15
2.852389439e+15
2.750050374e+15
2.749426355e+15
2.829924766e+15
2.889206542e+15
2.728833738e+15
2.882342336e+15
3.644893178e+15
3.00465e+15
3.224928598e+15
2.706369065e+15
8.455453271e+14
5.528805607e+14
3.962518692e+14
5.048311215e+14
6.59587757e+14
9.890696262e+14
1.188131589e+15
1.34039215e+15
1.289222617e+15
1.309815234e+15
1.656769626e+15
1.653649533e+15
1.644913271e+15
1.630560841e+15
2.175953178e+15
2.454265514e+15
2.358790654e+15
2.384999439e+15
2.425560654e+15
2.888582523e+15
3.525081589e+15
3.079532243e+15
3.120093458e+15
3.227424673e+15
3.294194673e+15
2.958472617e+15
2.703248972e+15
2.956600561e+15
3.112605234e+15
2.978441215e+15
3.201839907e+15
3.448951308e+15
2.995913738e+15
3.090764579e+15
2.607150093e+15
2.935383925e+15
3.125709626e+15
3.151294393e+15
2.650831402e+15
3.043963178e+15
2.562220748e+15
2.562220748e+15
4.861105607e+14
4.26828785e+14
5.784653271e+14
5.853295327e+14
7.881356075e+14
8.424252336e+14
9.472603738e+14
1.137586075e+15
1.752244486e+15
2.057389626e+15
1.893896729e+15
2.088590561e+15
2.142880187e+15
2.220258505e+15
2.911671215e+15
2.388743551e+15
2.678912243e+15
2.98093729e+15
2.507931121e+15
3.030858785e+15
3.377189159e+15
3.459559626e+15
3.644269159e+15
3.868291869e+15
3.291074579e+15
3.226176636e+15
2.610270187e+15
2.586557477e+15
2.826180654e+15
2.902310935e+15
3.142558131e+15
3.315411308e+15
3.212448224e+15
3.438342991e+15
2.854261495e+15
2.968456916e+15
2.957848598e+15
3.124461589e+15
3.151918411e+15
3.250513364e+15
3.079532243e+15
2.673296075e+15
3.276098131e+14
2.296388785e+14
4.461733645e+14
5.472643925e+14
6.652039252e+14
8.35561028e+14
1.272374112e+15
1.418394486e+15
1.795301776e+15
1.625568692e+15
1.98874757e+15
1.935081963e+15
1.918857477e+15
2.238979065e+15
2.577821215e+15
2.474858131e+15
2.617134393e+15
3.042091121e+15
2.433672897e+15
2.777507196e+15
2.89981486e+15
2.76627486e+15
3.141310093e+15
2.862373738e+15
2.668303925e+15
3.115725327e+15
3.269857944e+15
2.931015794e+15
3.201839907e+15
2.602781963e+15
2.631486822e+15
2.776259159e+15
3.175631121e+15
2.796851776e+15
3.188735514e+15
2.912919252e+15
2.731329813e+15
3.354724486e+15
2.992793645e+15
3.067051869e+15
2.881094299e+15
2.686400467e+15
3.282338318e+14
2.371271028e+14
5.809614019e+14
7.731591589e+14
1.232436916e+15
1.052719533e+15
1.295462804e+15
1.540078131e+15
1.368472991e+15
1.838359065e+15
1.85520757e+15
1.488908598e+15
1.681730374e+15
1.785317477e+15
2.059261682e+15
2.066125888e+15
1.937578037e+15
2.464873832e+15
2.106063084e+15
2.058637664e+15
2.189681589e+15
2.835540935e+15
2.449273364e+15
3.043963178e+15
2.838661028e+15
2.606526075e+15
2.708241121e+15
2.739442056e+15
2.463001776e+15
2.851765421e+15
2.345062243e+15
2.715105327e+15
2.82805271e+15
3.01401028e+15
2.690144579e+15
2.969080935e+15
3.145678224e+15
3.40027785e+15
3.339124019e+15
2.633358879e+15
2.619006449e+15
2.82805271e+15
5.728491589e+14
2.252707477e+14
4.056121495e+14
5.753452336e+14
7.232376636e+14
8.524095327e+14
1.150066449e+15
1.435867009e+15
1.614336355e+15
1.879544299e+15
2.114175327e+15
2.192177664e+15
2.202785981e+15
2.413704299e+15
2.091086636e+15
2.206530093e+15
2.124159626e+15
2.748802336e+15
2.784371402e+15
2.917287383e+15
2.544748224e+15
2.824308598e+15
2.807460093e+15
2.907303084e+15
2.753170467e+15
2.743810187e+15
2.937255981e+15
2.525403645e+15
3.268609907e+15
2.721969533e+15
2.766898879e+15
2.714481308e+15
2.489834579e+15
2.893574673e+15
3.065179813e+15
3.01401028e+15
3.16190271e+15
3.210576168e+15
3.473288037e+15
3.557530561e+15
3.375317103e+15
2.969080935e+15
7.00148972e+14
2.389991589e+14
4.287008411e+14
6.165304673e+14
7.500704673e+14
9.198035514e+14
1.289846636e+15
1.429002804e+15
1.495772804e+15
1.985627477e+15
2.06487785e+15
2.323221589e+15
2.49919486e+15
2.247091308e+15
2.325717664e+15
2.416200374e+15
2.333829907e+15
2.786243458e+15
2.896070748e+15
2.554732523e+15
2.433048879e+15
2.725089626e+15
2.803091963e+15
2.96159271e+15
3.088892523e+15
2.991545607e+15
3.000905888e+15
2.978441215e+15
3.040219065e+15
3.63428486e+15
2.858629626e+15
3.193727664e+15
2.993417664e+15
2.896070748e+15
3.532569813e+15
3.697310748e+15
3.055819533e+15
3.116349346e+15
2.977193178e+15
3.249889346e+15
3.007146075e+15
2.567836916e+15
9.091952336e+14
2.926647664e+14
4.34941028e+14
7.694150467e+14
8.286968224e+14
9.403961682e+14
1.005294112e+15
1.276742243e+15
1.487660561e+15
1.46394785e+15
1.785941495e+15
1.634928972e+15
1.567534953e+15
2.006220093e+15
1.812774299e+15
2.418696449e+15
2.265811869e+15
2.048029346e+15
2.356294579e+15
2.39435972e+15
2.141008131e+15
2.52789972e+15
2.782499346e+15
2.984057383e+15
2.579069252e+15
2.745058224e+15
2.951608411e+15
2.750050374e+15
2.664559813e+15
3.392789626e+15
2.904807009e+15
3.272978037e+15
3.207456075e+15
3.21931243e+15
3.093884673e+15
3.763456729e+15
2.955976542e+15
2.886086449e+15
2.83304486e+15
3.205584019e+15
2.833668879e+15
2.706993084e+15
5.896976636e+14
2.808084112e+14
4.617738318e+14
7.500704673e+14
1.003422056e+15
1.118241495e+15
1.336024019e+15
1.38781757e+15
1.592495701e+15
1.73102785e+15
1.801541963e+15
2.056141589e+15
1.769092991e+15
1.969402991e+15
2.06987e+15
2.728833738e+15
2.167216916e+15
2.370022991e+15
2.705121028e+15
2.496074766e+15
3.402149907e+15
2.77563514e+15
2.381879346e+15
2.59466972e+15
3.127581682e+15
2.778755234e+15
3.034602897e+15
2.72321757e+15
2.354422523e+15
2.784371402e+15
3.337251963e+15
3.476408131e+15
3.355972523e+15
3.304802991e+15
2.924151589e+15
2.793731682e+15
2.515419346e+15
2.491082617e+15
2.703248972e+15
2.765650841e+15
2.772515047e+15
3.035226916e+15
9.647328972e+14
5.591207477e+14
6.483554206e+14
9.435162617e+14
9.366520561e+14
1.003422056e+15
1.553806542e+15
1.249909439e+15
1.457083645e+15
1.377833271e+15
1.638673084e+15
2.258323645e+15
1.99373972e+15
2.053021495e+15
2.349430374e+15
2.713233271e+15
2.283908411e+15
2.32259757e+15
2.771267009e+15
2.800595888e+15
2.600285888e+15
2.159104673e+15
2.146624299e+15
2.462377757e+15
2.682032336e+15
2.786243458e+15
2.617134393e+15
2.32259757e+15
2.277044206e+15
2.408088131e+15
2.862373738e+15
2.917911402e+15
3.47703215e+15
3.090140561e+15
2.969080935e+15
2.917911402e+15
2.395607757e+15
2.483594393e+15
2.489210561e+15
2.523531589e+15
2.321349533e+15
2.653327477e+15
7.475743925e+14
2.826804673e+14
5.067031776e+14
6.683240187e+14
8.343129907e+14
1.319799533e+15
1.17315514e+15
1.069568037e+15
1.203732056e+15
1.32603972e+15
1.639297103e+15
1.713555327e+15
2.06050972e+15
1.737892056e+15
2.232738879e+15
2.363782804e+15
2.005596075e+15
2.640847103e+15
2.612766262e+15
3.14755028e+15
2.380631308e+15
2.271428037e+15
2.366278879e+15
2.609646168e+15
2.74693028e+15
2.809956168e+15
3.414006262e+15
3.065179813e+15
2.560348692e+15
2.645839252e+15
2.805588037e+15
3.137565981e+15
2.754418505e+15
2.779379252e+15
2.783123364e+15
3.151294393e+15
2.907927103e+15
2.496698785e+15
2.138512056e+15
2.690144579e+15
2.367526916e+15
2.466121869e+15
2.970328972e+14
3.425862617e+14
7.613028037e+14
9.921897196e+14
1.153186542e+15
1.3354e+15
1.238677103e+15
1.580639346e+15
1.380953364e+15
1.955674579e+15
1.814022336e+15
1.982507383e+15
2.130399813e+15
2.263939813e+15
2.213394299e+15
2.17969729e+15
2.206530093e+15
2.536011963e+15
2.500442897e+15
2.758162617e+15
2.912919252e+15
2.481098318e+15
2.846773271e+15
2.950984393e+15
3.047083271e+15
3.437718972e+15
3.242401121e+15
3.166270841e+15
2.992793645e+15
3.101996916e+15
3.06205972e+15
3.273602056e+15
3.29544271e+15
3.309171121e+15
3.241153084e+15
3.500120841e+15
3.518841402e+15
3.722271495e+15
3.377189159e+15
3.345364206e+15
3.296690748e+15
3.359716636e+15
1.959418692e+15
1.875176168e+15
1.568158972e+15
2.222130561e+15
2.555980561e+15
2.218386449e+15
2.495450748e+15
2.434920935e+15
3.340996075e+15
3.106989065e+15
2.99029757e+15
4.036776916e+15
3.773441028e+15
3.757840561e+15
3.609324112e+15
3.596843738e+15
3.61993243e+15
3.784673364e+15
3.566890841e+15
3.455815514e+15
4.803071869e+15
4.479206168e+15
4.085450374e+15
4.175309065e+15
4.051129346e+15
4.434900841e+15
5.257357477e+15
5.607431963e+15
4.715709252e+15
3.895748692e+15
4.309473084e+15
4.474214019e+15
4.501046822e+15
4.290128505e+15
4.230846729e+15
4.613370187e+15
4.44488514e+15
5.337855888e+15
5.428962617e+15
5.354704393e+15
6.013668131e+15
4.452373364e+15
2.20341e+15
2.44178514e+15
2.484218411e+15
2.576573178e+15
2.498570841e+15
3.943798131e+15
3.608076075e+15
5.627400561e+15
4.135371869e+15
4.937235888e+15
3.875156075e+15
5.056423458e+15
5.91382514e+15
4.381235234e+15
4.242079065e+15
4.765006729e+15
5.018358318e+15
5.329743645e+15
4.429284673e+15
5.753452336e+15
5.773420935e+15
5.60868e+15
5.649241215e+15
4.952836355e+15
4.97904514e+15
6.06670972e+15
6.009924019e+15
6.13784785e+15
6.015540187e+15
5.144410093e+15