/*--------------------------------*- C++ -*----------------------------------*\
| =========                 |                                                 |
| \\      /  F ield         | OpenFOAM: The Open Source CFD Toolbox           |
|  \\    /   O peration     | Version:  v1706                                 |
|   \\  /    A nd           | Web:      www.OpenFOAM.com                      |
|    \\/     M anipulation  |                                                 |
\*---------------------------------------------------------------------------*/
FoamFile
{
    version     2.0;
    format      ascii;
    class       volScalarField;
    location    "3.996";
    object      rhoN_O2;
}
// * * * * * * * * * * * * * * * * * * * * * * * * * * * * * * * * * * * * * //

dimensions      [0 -3 0 0 0 0 0];


internalField   nonuniform List<scalar> 
50792
(
3.931317757e+13
2.851765421e+14
5.316639252e+14
1.478924299e+14
1.697330841e+14
2.258947664e+14
1.666129907e+14
3.226176636e+14
3.438342991e+14
2.826804673e+14
4.817424299e+14
3.968758879e+14
5.797133645e+14
4.929747664e+14
4.068601869e+14
6.976528972e+14
5.285438318e+14
5.74721215e+14
4.904786916e+14
5.453923364e+14
5.703530841e+14
5.560006542e+14
6.140343925e+14
6.127863551e+14
6.09042243e+14
5.865775701e+14
1.162546822e+15
8.286968224e+14
7.251097196e+14
7.812714019e+14
8.773702804e+14
6.421152336e+14
5.953138318e+14
5.934417757e+14
9.02331028e+14
6.552196262e+14
6.533475701e+14
6.814284112e+14
6.489794393e+14
6.464833645e+14
7.070131776e+14
7.070131776e+14
2.34631028e+14
5.92817757e+13
7.051411215e+13
9.173074766e+13
1.17315514e+14
1.591247664e+14
2.976569159e+14
4.842385047e+14
2.895446729e+14
4.75502243e+14
3.868915888e+14
5.148154206e+14
4.992149533e+14
4.16844486e+14
4.324449533e+14
5.316639252e+14
4.043641121e+14
5.453923364e+14
5.204315888e+14
6.471073832e+14
6.826764486e+14
7.93127757e+14
7.793993458e+14
5.591207477e+14
5.160634579e+14
3.837714953e+14
5.010870093e+14
4.954708411e+14
4.992149533e+14
6.970288785e+14
5.672329907e+14
8.286968224e+14
6.233946729e+14
5.054551402e+14
6.246427103e+14
6.402431776e+14
5.84705514e+14
8.998349533e+14
7.837674766e+14
6.17154486e+14
5.510085047e+14
5.366560748e+14
5.616168224e+12
3.057691589e+13
6.926607477e+13
7.488224299e+13
9.422682243e+13
1.141954206e+14
5.110713084e+14
2.0031e+14
2.046781308e+14
3.887636449e+14
2.389991589e+14
2.720721495e+14
3.488264486e+14
3.531945794e+14
4.224606542e+14
3.563146729e+14
4.012440187e+14
6.003059813e+14
4.892306542e+14
4.767502804e+14
5.74721215e+14
6.265147664e+14
5.42272243e+14
6.533475701e+14
5.528805607e+14
5.547526168e+14
6.389951402e+14
6.945328037e+14
6.446113084e+14
5.60368785e+14
6.408671963e+14
1.072688131e+15
6.75812243e+14
5.896976636e+14
7.756552336e+14
5.865775701e+14
5.304158879e+14
5.216796262e+14
6.439872897e+14
5.397761682e+14
8.124723364e+14
7.063891589e+14
4.43053271e+13
3.120093458e+13
5.803373832e+13
8.299448598e+13
1.017150467e+14
1.466443925e+14
1.765972897e+14
1.847095327e+14
3.232416822e+14
2.421192523e+14
3.875156075e+14
4.929747664e+14
2.814324299e+14
3.282338318e+14
3.619308411e+14
3.388421495e+14
7.057651402e+14
4.205885981e+14
5.772172897e+14
8.33688972e+14
7.444542991e+14
7.625508411e+14
4.723821495e+14
5.497604673e+14
4.642699065e+14
4.16844486e+14
5.591207477e+14
6.833004673e+14
5.971858879e+14
5.815854206e+14
7.662949533e+14
7.637988785e+14
8.056081308e+14
5.235516822e+14
5.510085047e+14
4.779983178e+14
5.110713084e+14
5.154394393e+14
7.550626168e+14
7.325979439e+14
6.202745794e+14
4.723821495e+14
8.361850467e+13
4.929747664e+13
1.753492523e+14
2.32758972e+14
2.240227103e+14
1.978139252e+14
3.850195327e+14
2.533515888e+14
4.505414953e+14
2.826804673e+14
4.574057009e+14
3.263617757e+14
3.956278505e+14
4.0062e+14
3.457063551e+14
4.174685047e+14
5.641128972e+14
3.694190654e+14
4.299488785e+14
5.110713084e+14
4.611498131e+14
6.889166355e+14
7.350940187e+14
6.627078505e+14
5.753452336e+14
8.686340187e+14
7.325979439e+14
4.848625234e+14
6.321309346e+14
8.492894393e+14
7.538145794e+14
7.675429907e+14
7.843914953e+14
5.379041121e+14
6.620838318e+14
4.549096262e+14
5.566246729e+14
5.797133645e+14
6.92036729e+14
6.084182243e+14
6.458593458e+14
6.028020561e+14
2.371271028e+13
4.555336449e+13
7.550626168e+13
9.110672897e+13
2.302628972e+14
1.435242991e+14
1.92197757e+14
3.831474766e+14
3.912597196e+14
2.839285047e+14
2.895446729e+14
3.825234579e+14
2.620878505e+14
3.488264486e+14
3.556906542e+14
4.162204673e+14
3.294818692e+14
3.326019626e+14
3.881396262e+14
5.229276636e+14
4.455493458e+14
8.243286916e+14
5.722251402e+14
7.145014019e+14
4.492934579e+14
4.929747664e+14
5.535045794e+14
7.382141121e+14
7.837674766e+14
5.915697196e+14
5.809614019e+14
6.558436449e+14
8.17464486e+14
6.751882243e+14
6.439872897e+14
5.297918692e+14
4.630218692e+14
5.578727103e+14
5.3416e+14
6.882926168e+14
7.837674766e+14
4.605257944e+14
1.522605607e+14
1.435242991e+13
1.560046729e+13
5.304158879e+13
7.363420561e+13
1.341640187e+14
2.196545794e+14
1.191875701e+14
2.34631028e+14
2.521035514e+14
2.758162617e+14
2.895446729e+14
3.956278505e+14
2.795603738e+14
3.070171963e+14
3.207456075e+14
4.742542056e+14
5.272957944e+14
6.177785047e+14
7.132533645e+14
7.662949533e+14
5.07951215e+14
5.17935514e+14
5.042071028e+14
6.134103738e+14
6.315069159e+14
8.361850467e+14
7.775272897e+14
6.658279439e+14
5.510085047e+14
5.535045794e+14
3.981239252e+14
5.641128972e+14
4.212126168e+14
4.599017757e+14
4.792463551e+14
6.627078505e+14
6.464833645e+14
6.302588785e+14
7.375900935e+14
8.43673271e+14
6.589637383e+14
1.185635514e+13
3.868915888e+13
9.60988785e+13
1.472684112e+14
1.815894393e+14
2.783123364e+14
2.652079439e+14
3.263617757e+14
2.920407477e+14
4.174685047e+14
3.950038318e+14
3.556906542e+14
4.093562617e+14
4.399331776e+14
5.410242056e+14
6.0093e+14
5.547526168e+14
5.379041121e+14
6.439872897e+14
6.321309346e+14
7.213656075e+14
7.787753271e+14
6.970288785e+14
6.520995327e+14
6.371230841e+14
1.017774486e+15
7.744071963e+14
6.389951402e+14
5.123193458e+14
6.589637383e+14
7.151254206e+14
6.633318692e+14
5.634888785e+14
7.057651402e+14
5.740971963e+14
5.01711028e+14
5.921937383e+14
5.659849533e+14
6.864205607e+14
5.304158879e+14
6.502274766e+14
6.951568224e+14
1.934457944e+13
7.113813084e+13
1.472684112e+14
1.042111215e+14
1.285478505e+14
1.347880374e+14
1.890776636e+14
3.737871963e+14
2.870485981e+14
3.987479439e+14
3.400901869e+14
4.149724299e+14
3.887636449e+14
4.193405607e+14
5.329119626e+14
4.480454206e+14
4.655179439e+14
4.717581308e+14
5.460163551e+14
6.327549533e+14
5.135673832e+14
8.592737383e+14
5.909457009e+14
7.42582243e+14
5.616168224e+14
4.811184112e+14
5.354080374e+14
6.046741121e+14
6.689480374e+14
8.960908411e+14
1.573151121e+15
9.697250467e+14
8.567776636e+14
7.151254206e+14
6.882926168e+14
8.748742056e+14
7.357180374e+14
9.435162617e+14
7.288538318e+14
5.360320561e+14
8.505374766e+14
5.204315888e+14
4.492934579e+13
4.243327103e+13
1.460203738e+14
8.861065421e+13
1.453963551e+14
2.290148598e+14
3.163774766e+14
2.421192523e+14
2.458633645e+14
3.450823364e+14
3.519465421e+14
4.212126168e+14
3.68171028e+14
3.463303738e+14
4.655179439e+14
2.882966355e+14
3.588107477e+14
3.007770093e+14
4.099802804e+14
4.449253271e+14
5.616168224e+14
5.740971963e+14
4.137243925e+14
5.978099065e+14
4.474214019e+14
4.486694393e+14
5.428962617e+14
5.3416e+14
6.83924486e+14
1.091408692e+15
4.361890654e+14
5.173114953e+14
3.556906542e+14
8.25576729e+14
4.648939252e+14
4.692620561e+14
4.418052336e+14
5.672329907e+14
6.283868224e+14
5.778413084e+14
6.914127103e+14
5.042071028e+14
5.428962617e+13
1.435242991e+13
9.360280374e+13
3.120093458e+13
7.176214953e+13
1.154434579e+14
1.641169159e+14
2.50855514e+14
4.817424299e+14
3.201215888e+14
3.669229907e+14
2.801843925e+14
4.854865421e+14
4.056121495e+14
6.801803738e+14
4.386851402e+14
5.60368785e+14
4.399331776e+14
4.361890654e+14
4.237086916e+14
3.974999065e+14
6.33378972e+14
6.327549533e+14
5.528805607e+14
4.031160748e+14
4.723821495e+14
4.829904673e+14
5.547526168e+14
6.59587757e+14
6.627078505e+14
5.297918692e+14
5.247997196e+14
5.453923364e+14
5.354080374e+14
7.113813084e+14
4.992149533e+14
4.212126168e+14
5.753452336e+14
7.032690654e+14
4.730061682e+14
5.129433645e+14
3.837714953e+14
3.74411215e+13
1.503885047e+14
1.123233645e+14
1.166914953e+14
1.59748785e+14
1.815894393e+14
2.533515888e+14
2.689520561e+14
2.982809346e+14
3.394661682e+14
4.218366355e+14
5.790893458e+14
5.322879439e+14
7.625508411e+14
5.297918692e+14
4.212126168e+14
4.786223364e+14
6.121623364e+14
6.620838318e+14
6.726921495e+14
7.207415888e+14
5.790893458e+14
6.015540187e+14
6.901646729e+14
6.258907477e+14
7.68791028e+14
6.83924486e+14
8.836104673e+14
6.43363271e+14
8.037360748e+14
7.563106542e+14
7.538145794e+14
8.099762617e+14
6.901646729e+14
6.35251028e+14
6.733161682e+14
7.575586916e+14
7.575586916e+14
6.645799065e+14
7.60678785e+14
6.602117757e+14
6.040500935e+14
3.09513271e+14
1.297958879e+14
1.004670093e+14
1.354120561e+14
1.672370093e+14
2.252707477e+14
5.410242056e+14
2.639599065e+14
2.926647664e+14
3.956278505e+14
3.238657009e+14
3.213696262e+14
3.725391589e+14
3.606828037e+14
4.99838972e+14
3.918837383e+14
4.574057009e+14
5.379041121e+14
8.112242991e+14
9.060751402e+14
7.731591589e+14
7.925037383e+14
9.222996262e+14
6.745642056e+14
6.608357944e+14
6.43363271e+14
8.442972897e+14
7.744071963e+14
7.057651402e+14
8.311928972e+14
8.910986916e+14
9.08571215e+14
1.114497383e+15
1.047727383e+15
1.012782336e+15
9.834534579e+14
9.379000935e+14
8.049841121e+14
6.43363271e+14
7.737831776e+14
5.703530841e+14
5.971858879e+14
4.75502243e+14
3.413382243e+14
1.366600935e+14
1.809654206e+14
2.096702804e+14
2.24646729e+14
3.918837383e+14
5.191835514e+14
6.015540187e+14
2.471114019e+14
3.675470093e+14
4.436772897e+14
2.795603738e+14
3.993719626e+14
3.694190654e+14
5.740971963e+14
4.074842056e+14
5.247997196e+14
7.438302804e+14
5.859535514e+14
5.048311215e+14
5.996819626e+14
9.728451402e+14
6.739401869e+14
5.054551402e+14
7.893836449e+14
7.781513084e+14
7.18245514e+14
9.647328972e+14
7.956238318e+14
8.368090654e+14
9.728451402e+14
1.047727383e+15
6.402431776e+14
8.299448598e+14
1.021518598e+15
1.06332785e+15
1.128849813e+15
1.070816075e+15
8.555296262e+14
7.070131776e+14
5.01711028e+14
6.140343925e+14
1.017150467e+14
1.609968224e+14
1.65988972e+14
1.996859813e+14
2.570957009e+14
3.513225234e+14
5.597447664e+14
2.689520561e+14
3.032730841e+14
3.194975701e+14
3.038971028e+14
3.045211215e+14
4.599017757e+14
3.58186729e+14
4.012440187e+14
3.58186729e+14
4.418052336e+14
5.304158879e+14
4.542856075e+14
3.837714953e+14
5.716011215e+14
7.188695327e+14
8.836104673e+14
7.201175701e+14
8.524095327e+14
6.308828972e+14
6.652039252e+14
7.145014019e+14
6.371230841e+14
5.840814953e+14
6.951568224e+14
1.100144953e+15
9.559966355e+14
1.101392991e+15
7.169974766e+14
7.432062617e+14
7.538145794e+14
7.644228972e+14
7.818954206e+14
6.315069159e+14
5.166874766e+14
1.042111215e+14
5.428962617e+13
8.112242991e+13
8.798663551e+13
1.341640187e+14
1.984379439e+14
2.015580374e+14
2.34631028e+14
2.745682243e+14
3.463303738e+14
3.475784112e+14
3.781553271e+14
3.438342991e+14
4.942228037e+14
4.929747664e+14
6.396191589e+14
4.174685047e+14
5.92817757e+14
5.372800935e+14
8.492894393e+14
5.903216822e+14
7.681670093e+14
6.633318692e+14
8.898506542e+14
6.046741121e+14
5.578727103e+14
6.627078505e+14
6.658279439e+14
6.321309346e+14
6.795563551e+14
4.642699065e+14
4.811184112e+14
5.896976636e+14
7.219896262e+14
4.954708411e+14
6.015540187e+14
6.889166355e+14
4.804943925e+14
7.194935514e+14
6.701960748e+14
6.520995327e+14
5.853295327e+14
8.299448598e+13
3.244897196e+13
5.491364486e+13
1.029630841e+14
1.547566355e+14
2.096702804e+14
3.070171963e+14
3.263617757e+14
3.943798131e+14
5.753452336e+14
3.850195327e+14
3.92507757e+14
4.155964486e+14
5.116953271e+14
7.800233645e+14
5.890736449e+14
6.489794393e+14
5.965618692e+14
7.806473832e+14
6.358750467e+14
4.911027103e+14
6.121623364e+14
6.046741121e+14
8.037360748e+14
8.212085981e+14
6.340029907e+14
8.449213084e+14
8.187125234e+14
9.017070093e+14
7.132533645e+14
6.733161682e+14
7.325979439e+14
7.906316822e+14
7.744071963e+14
6.021780374e+14
7.75031215e+14
6.589637383e+14
7.045171028e+14
8.168404673e+14
9.597407477e+14
8.0124e+14
5.572486916e+14
2.046781308e+14
4.368130841e+13
1.042111215e+14
1.547566355e+14
1.74101215e+14
2.702000935e+14
2.034300935e+14
2.377511215e+14
3.812754206e+14
2.926647664e+14
3.569386916e+14
3.931317757e+14
4.311969159e+14
3.856435514e+14
3.457063551e+14
6.277628037e+14
5.116953271e+14
6.745642056e+14
6.146584112e+14
4.75502243e+14
4.224606542e+14
5.497604673e+14
5.391521495e+14
6.159064486e+14
8.018640187e+14
5.946898131e+14
8.130963551e+14
5.091992523e+14
7.544385981e+14
5.272957944e+14
6.215226168e+14
6.41491215e+14
4.324449533e+14
4.43053271e+14
5.466403738e+14
7.388381308e+14
8.430492523e+14
4.399331776e+14
4.530375701e+14
9.553726168e+14
6.290108411e+14
4.648939252e+14
1.129473832e+14
7.42582243e+13
8.361850467e+13
1.466443925e+14
1.272998131e+14
2.190305607e+14
4.018680374e+14
2.452393458e+14
2.50855514e+14
3.301058879e+14
4.461733645e+14
4.605257944e+14
7.332219626e+14
6.689480374e+14
4.617738318e+14
4.973428972e+14
7.113813084e+14
8.511614953e+14
7.481984112e+14
6.146584112e+14
6.483554206e+14
6.140343925e+14
8.149684112e+14
9.709730841e+14
7.631748598e+14
5.07951215e+14
6.851725234e+14
6.439872897e+14
7.057651402e+14
7.706630841e+14
8.374330841e+14
8.467933645e+14
6.221466355e+14
5.522565421e+14
5.60368785e+14
5.678570093e+14
5.971858879e+14
5.335359813e+14
4.698860748e+14
6.346270093e+14
5.60368785e+14
4.393091589e+14
1.185635514e+13
4.992149533e+13
1.017150467e+14
2.302628972e+14
2.215266355e+14
3.394661682e+14
3.875156075e+14
3.25737757e+14
3.60058785e+14
5.703530841e+14
4.517895327e+14
3.950038318e+14
4.336929907e+14
4.99838972e+14
5.029590654e+14
5.697290654e+14
5.366560748e+14
6.246427103e+14
5.859535514e+14
8.430492523e+14
6.046741121e+14
5.291678505e+14
7.413342056e+14
8.293208411e+14
4.923507477e+14
4.012440187e+14
4.467973832e+14
7.257337383e+14
5.541285981e+14
5.672329907e+14
6.851725234e+14
5.023350467e+14
6.408671963e+14
5.379041121e+14
5.210556075e+14
5.279198131e+14
5.809614019e+14
6.677e+14
6.202745794e+14
5.472643925e+14
5.653609346e+14
5.516325234e+14
2.296388785e+14
7.488224299e+13
1.778453271e+14
1.379081308e+14
4.037400935e+14
2.602157944e+14
2.545996262e+14
3.01401028e+14
3.594347664e+14
3.457063551e+14
3.893876636e+14
4.879826168e+14
4.617738318e+14
4.742542056e+14
4.786223364e+14
7.163734579e+14
5.853295327e+14
7.282298131e+14
7.681670093e+14
8.636418692e+14
6.870445794e+14
7.207415888e+14
7.731591589e+14
5.073271963e+14
8.25576729e+14
6.882926168e+14
6.864205607e+14
6.096662617e+14
7.937517757e+14
7.157494393e+14
8.043600935e+14
6.446113084e+14
5.784653271e+14
5.048311215e+14
5.160634579e+14
6.427392523e+14
4.611498131e+14
5.884496262e+14
4.574057009e+14
4.873585981e+14
6.989009346e+14
5.728491589e+14
6.240186916e+13
3.931317757e+13
3.400901869e+14
9.297878505e+13
1.990619626e+14
3.463303738e+14
2.989049533e+14
1.940698131e+14
2.745682243e+14
3.513225234e+14
3.656749533e+14
3.09513271e+14
3.276098131e+14
3.276098131e+14
4.031160748e+14
4.124763551e+14
4.91726729e+14
6.421152336e+14
4.773742991e+14
6.265147664e+14
3.706671028e+14
3.787793458e+14
5.310399065e+14
1.033998972e+15
4.486694393e+14
6.059221495e+14
5.809614019e+14
7.232376636e+14
7.157494393e+14
5.472643925e+14
7.226136449e+14
8.143443925e+14
9.940617757e+14
1.084544486e+15
7.469503738e+14
8.062321495e+14
5.809614019e+14
4.59277757e+14
4.898546729e+14
4.574057009e+14
4.723821495e+14
3.531945794e+14
1.49764486e+13
6.864205607e+12
4.368130841e+13
7.238616822e+13
2.433672897e+14
1.897016822e+14
2.134143925e+14
3.794033645e+14
3.382181308e+14
3.369700935e+14
5.441442991e+14
3.74411215e+14
4.461733645e+14
4.393091589e+14
5.148154206e+14
3.862675701e+14
4.099802804e+14
5.50384486e+14
5.204315888e+14
3.787793458e+14
4.542856075e+14
7.26357757e+14
8.018640187e+14
8.393051402e+14
6.995249533e+14
6.159064486e+14
5.285438318e+14
6.570916822e+14
5.073271963e+14
4.929747664e+14
7.818954206e+14
1.019022523e+15
1.041487196e+15
9.297878505e+14
1.04460729e+15
6.364990654e+14
7.93127757e+14
6.508514953e+14
7.93127757e+14
4.492934579e+14
5.703530841e+14
5.17935514e+14
2.870485981e+14
8.299448598e+13
1.609968224e+14
2.733201869e+14
1.57876729e+14
1.653649533e+14
2.071742056e+14
2.333829907e+14
4.093562617e+14
2.964088785e+14
3.625548598e+14
4.742542056e+14
4.056121495e+14
4.948468224e+14
5.828334579e+14
3.413382243e+14
3.494504673e+14
7.569346729e+14
4.811184112e+14
5.291678505e+14
4.792463551e+14
4.692620561e+14
5.17935514e+14
4.374371028e+14
5.809614019e+14
8.162164486e+14
7.50694486e+14
4.904786916e+14
4.599017757e+14
5.441442991e+14
5.272957944e+14
8.081042056e+14
8.561536449e+14
9.366520561e+14
5.491364486e+14
4.6739e+14
6.115383178e+14
7.288538318e+14
6.795563551e+14
5.92817757e+14
6.240186916e+14
3.906357009e+14
3.781553271e+14
1.09203271e+14
1.397801869e+14
9.797093458e+13
1.541326168e+14
1.734771963e+14
1.990619626e+14
3.263617757e+14
3.781553271e+14
2.889206542e+14
3.251137383e+14
2.920407477e+14
4.386851402e+14
5.466403738e+14
4.904786916e+14
3.943798131e+14
6.321309346e+14
5.441442991e+14
5.023350467e+14
5.154394393e+14
5.054551402e+14
6.783083178e+14
6.040500935e+14
5.042071028e+14
6.140343925e+14
6.901646729e+14
7.531905607e+14
6.558436449e+14
7.357180374e+14
4.555336449e+14
7.925037383e+14
6.427392523e+14
4.355650467e+14
7.906316822e+14
6.196505607e+14
6.046741121e+14
4.51165514e+14
4.91726729e+14
5.335359813e+14
5.909457009e+14
5.291678505e+14
4.630218692e+14
5.691050467e+14
1.01091028e+14
6.864205607e+13
7.42582243e+13
8.673859813e+13
1.054591589e+14
3.706671028e+14
2.109183178e+14
3.232416822e+14
2.215266355e+14
2.545996262e+14
3.569386916e+14
4.804943925e+14
6.508514953e+14
5.984339252e+14
5.210556075e+14
9.029550467e+14
4.904786916e+14
4.723821495e+14
4.617738318e+14
5.878256075e+14
4.599017757e+14
6.620838318e+14
4.99838972e+14
4.730061682e+14
6.645799065e+14
7.531905607e+14
8.168404673e+14
5.547526168e+14
5.828334579e+14
7.413342056e+14
4.623978505e+14
5.110713084e+14
5.148154206e+14
8.180885047e+14
7.675429907e+14
4.842385047e+14
5.254237383e+14
5.060791589e+14
6.240186916e+14
5.659849533e+14
4.786223364e+14
2.021820561e+14
5.428962617e+13
7.301018692e+13
1.341640187e+14
1.815894393e+14
2.152864486e+14
2.333829907e+14
2.26518785e+14
2.957848598e+14
3.363460748e+14
5.279198131e+14
4.324449533e+14
5.216796262e+14
5.74721215e+14
5.485124299e+14
4.911027103e+14
5.272957944e+14
5.073271963e+14
4.056121495e+14
4.661419626e+14
5.229276636e+14
4.243327103e+14
3.750352336e+14
3.650509346e+14
3.775313084e+14
4.973428972e+14
5.541285981e+14
4.605257944e+14
5.316639252e+14
8.467933645e+14
8.143443925e+14
7.756552336e+14
8.673859813e+14
8.187125234e+14
7.375900935e+14
8.106002804e+14
5.728491589e+14
8.280728037e+14
3.606828037e+14
4.642699065e+14
4.561576636e+14
5.035830841e+14
1.447723364e+14
1.684850467e+13
5.92817757e+13
1.435242991e+14
1.928217757e+14
2.564716822e+14
2.75192243e+14
2.982809346e+14
3.50074486e+14
3.956278505e+14
4.636458879e+14
5.360320561e+14
6.196505607e+14
6.321309346e+14
5.104472897e+14
4.923507477e+14
4.954708411e+14
4.91726729e+14
5.266717757e+14
5.335359813e+14
6.427392523e+14
6.726921495e+14
7.787753271e+14
5.466403738e+14
7.107572897e+14
7.925037383e+14
1.102641028e+15
9.497564486e+14
9.372760748e+14
9.478843925e+14
6.83924486e+14
7.038930841e+14
5.522565421e+14
9.822054206e+14
6.065461682e+14
8.867305607e+14
6.677e+14
5.809614019e+14
6.633318692e+14
6.496034579e+14
4.992149533e+14
4.886066355e+14
4.730061682e+14
9.984299065e+13
1.204356075e+14
1.65988972e+14
1.953178505e+14
2.021820561e+14
2.452393458e+14
2.93288785e+14
3.550666355e+14
3.326019626e+14
3.282338318e+14
3.756592523e+14
6.402431776e+14
4.24956729e+14
4.081082243e+14
6.152824299e+14
4.942228037e+14
4.230846729e+14
5.965618692e+14
5.953138318e+14
4.923507477e+14
4.368130841e+14
4.293248598e+14
7.151254206e+14
6.496034579e+14
7.151254206e+14
7.862635514e+14
7.949998131e+14
7.176214953e+14
5.691050467e+14
5.541285981e+14
8.262007477e+14
5.297918692e+14
5.304158879e+14
4.705100935e+14
6.508514953e+14
7.132533645e+14
6.970288785e+14
7.843914953e+14
1.078304299e+15
8.09352243e+14
6.733161682e+14
2.446153271e+14
2.439913084e+14
3.126333645e+14
2.221506542e+14
2.377511215e+14
2.91416729e+14
4.486694393e+14
3.918837383e+14
3.494504673e+14
3.057691589e+14
2.764402804e+14
3.482024299e+14
4.829904673e+14
4.449253271e+14
5.17935514e+14
4.911027103e+14
6.795563551e+14
5.110713084e+14
6.27138785e+14
5.26047757e+14
4.33068972e+14
5.410242056e+14
5.004629907e+14
7.051411215e+14
7.650469159e+14
9.778372897e+14
5.173114953e+14
4.59277757e+14
4.580297196e+14
4.574057009e+14
5.316639252e+14
5.235516822e+14
6.627078505e+14
7.10133271e+14
6.159064486e+14
4.524135514e+14
5.285438318e+14
5.497604673e+14
5.416482243e+14
7.775272897e+14
3.450823364e+14
3.737871963e+14
3.107613084e+14
1.647409346e+14
8.736261682e+13
1.060831776e+14
1.279238318e+14
1.722291589e+14
3.294818692e+14
3.868915888e+14
4.979669159e+14
3.569386916e+14
3.850195327e+14
4.436772897e+14
4.305728972e+14
4.617738318e+14
4.861105607e+14
5.01711028e+14
5.404001869e+14
3.993719626e+14
3.981239252e+14
4.33068972e+14
4.492934579e+14
6.065461682e+14
5.709771028e+14
6.071701869e+14
9.51004486e+14
8.592737383e+14
8.698820561e+14
6.077942056e+14
6.340029907e+14
6.202745794e+14
9.684770093e+14
4.854865421e+14
4.99838972e+14
7.563106542e+14
8.636418692e+14
5.310399065e+14
5.965618692e+14
6.446113084e+14
1.07768028e+15
7.999919626e+14
6.645799065e+14
5.560006542e+14
4.542856075e+14
2.439913084e+14
9.984299065e+13
1.029630841e+14
1.141954206e+14
1.822134579e+14
1.865815888e+14
2.190305607e+14
1.778453271e+14
2.739442056e+14
3.575627103e+14
3.800273832e+14
2.196545794e+14
2.826804673e+14
5.029590654e+14
6.115383178e+14
2.976569159e+14
3.288578505e+14
3.868915888e+14
4.16844486e+14
5.50384486e+14
4.642699065e+14
6.951568224e+14
7.856395327e+14
5.616168224e+14
6.402431776e+14
5.809614019e+14
8.280728037e+14
4.486694393e+14
5.865775701e+14
6.034260748e+14
6.115383178e+14
6.184025234e+14
7.213656075e+14
4.549096262e+14
5.129433645e+14
5.953138318e+14
7.201175701e+14
6.077942056e+14
6.976528972e+14
4.83614486e+14
5.647369159e+14
1.210596262e+14
6.614598131e+13
2.227746729e+14
1.266757944e+14
1.185635514e+14
2.065501869e+14
1.510125234e+14
1.634928972e+14
2.071742056e+14
5.216796262e+14
4.779983178e+14
3.993719626e+14
3.906357009e+14
4.33068972e+14
4.898546729e+14
4.174685047e+14
3.912597196e+14
4.911027103e+14
4.886066355e+14
5.953138318e+14
6.764362617e+14
6.808043925e+14
9.229236449e+14
7.413342056e+14
6.589637383e+14
4.33068972e+14
4.586537383e+14
5.76593271e+14
7.176214953e+14
6.302588785e+14
5.66608972e+14
7.818954206e+14
8.130963551e+14
6.583397196e+14
7.188695327e+14
8.405531776e+14
1.085792523e+15
9.297878505e+14
8.205845794e+14
6.845485047e+14
8.218326168e+14
7.637988785e+14
1.996859813e+14
2.558476636e+13
1.585007477e+14
5.17935514e+13
1.210596262e+14
1.223076636e+14
1.3354e+14
2.789363551e+14
4.062361682e+14
3.974999065e+14
3.68171028e+14
4.34941028e+14
4.736301869e+14
4.992149533e+14
4.767502804e+14
4.59277757e+14
4.530375701e+14
8.449213084e+14
6.115383178e+14
6.159064486e+14
5.241757009e+14
5.01711028e+14
6.889166355e+14
6.059221495e+14
5.641128972e+14
7.113813084e+14
6.483554206e+14
6.383711215e+14
8.305688785e+14
5.628648598e+14
5.840814953e+14
5.971858879e+14
8.268247664e+14
6.59587757e+14
6.932847664e+14
7.138773832e+14
7.157494393e+14
1.19249972e+15
8.648899065e+14
7.812714019e+14
6.93908785e+14
6.190265421e+14
4.742542056e+13
6.052981308e+13
2.50855514e+14
1.491404673e+14
2.0031e+14
1.772213084e+14
2.895446729e+14
3.438342991e+14
3.282338318e+14
4.524135514e+14
3.388421495e+14
3.669229907e+14
3.837714953e+14
3.906357009e+14
4.536615888e+14
5.198075701e+14
3.66298972e+14
4.798703738e+14
4.230846729e+14
3.650509346e+14
3.943798131e+14
4.779983178e+14
5.347840187e+14
3.893876636e+14
4.237086916e+14
4.761262617e+14
4.237086916e+14
4.336929907e+14
3.806514019e+14
6.670759813e+14
4.336929907e+14
5.634888785e+14
5.160634579e+14
5.091992523e+14
3.613068224e+14
4.867345794e+14
7.681670093e+14
1.025886729e+15
6.096662617e+14
5.447683178e+14
7.925037383e+14
5.803373832e+14
5.92817757e+13
2.870485981e+13
6.427392523e+13
1.17315514e+14
1.023390654e+14
1.285478505e+14
1.547566355e+14
1.828374766e+14
2.595917757e+14
4.418052336e+14
4.648939252e+14
5.790893458e+14
4.561576636e+14
4.218366355e+14
4.873585981e+14
5.241757009e+14
5.366560748e+14
6.383711215e+14
4.798703738e+14
5.959378505e+14
5.578727103e+14
4.929747664e+14
4.530375701e+14
4.59277757e+14
4.623978505e+14
4.455493458e+14
5.304158879e+14
4.093562617e+14
5.628648598e+14
7.943757944e+14
6.508514953e+14
6.833004673e+14
7.3447e+14
8.892266355e+14
7.226136449e+14
5.872015888e+14
5.622408411e+14
6.43363271e+14
9.391481308e+14
8.330649533e+14
8.898506542e+14
7.038930841e+14
1.410282243e+14
2.371271028e+13
9.797093458e+13
1.803414019e+14
2.127903738e+14
2.308869159e+14
2.83304486e+14
2.83304486e+14
4.436772897e+14
3.525705607e+14
4.873585981e+14
6.677e+14
5.210556075e+14
5.135673832e+14
5.17935514e+14
4.873585981e+14
5.453923364e+14
6.558436449e+14
7.375900935e+14
4.736301869e+14
5.004629907e+14
5.697290654e+14
5.360320561e+14
6.864205607e+14
8.368090654e+14
6.0093e+14
6.046741121e+14
7.494464486e+14
7.93127757e+14
9.010829907e+14
6.377471028e+14
8.59897757e+14
7.10133271e+14
6.33378972e+14
8.567776636e+14
9.946857944e+14
8.59897757e+14
7.538145794e+14
7.600547664e+14
6.265147664e+14
6.046741121e+14
5.510085047e+14
4.492934579e+14
7.488224299e+13
9.173074766e+13
1.291718692e+14
1.285478505e+14
2.215266355e+14
1.522605607e+14
1.809654206e+14
2.945368224e+14
3.219936449e+14
4.280768224e+14
4.180925234e+14
2.645839252e+14
3.145054206e+14
2.870485981e+14
2.608398131e+14
4.51165514e+14
3.74411215e+14
6.483554206e+14
5.054551402e+14
5.241757009e+14
8.087282243e+14
6.508514953e+14
7.619268224e+14
5.953138318e+14
7.088852336e+14
9.354040187e+14
5.865775701e+14
5.815854206e+14
8.099762617e+14
7.550626168e+14
7.912557009e+14
7.132533645e+14
9.75341215e+14
1.059583738e+15
9.466363551e+14
5.491364486e+14
5.26047757e+14
6.907886916e+14
5.60368785e+14
5.004629907e+14
4.343170093e+14
3.619308411e+13
1.372841121e+13
5.116953271e+13
5.428962617e+13
9.859495327e+13
1.553806542e+14
3.032730841e+14
2.021820561e+14
3.01401028e+14
3.026490654e+14
3.088892523e+14
3.07641215e+14
3.513225234e+14
3.987479439e+14
5.173114953e+14
6.995249533e+14
4.923507477e+14
5.366560748e+14
5.678570093e+14
5.678570093e+14
7.026450467e+14
4.180925234e+14
4.605257944e+14
7.157494393e+14
8.130963551e+14
7.02021028e+14
1.042111215e+15
6.833004673e+14
6.296348598e+14
7.288538318e+14
8.399291589e+14
1.150066449e+15
1.075808224e+15
8.074801869e+14
7.26357757e+14
7.993679439e+14
6.92036729e+14
6.533475701e+14
6.221466355e+14
6.233946729e+14
6.208985981e+14
7.581827103e+14
5.241757009e+13
6.052981308e+13
7.737831776e+13
1.123233645e+14
1.429002804e+14
1.884536449e+14
3.868915888e+14
3.369700935e+14
4.854865421e+14
2.895446729e+14
2.6708e+14
3.25737757e+14
3.09513271e+14
5.060791589e+14
6.446113084e+14
5.597447664e+14
5.279198131e+14
4.018680374e+14
5.3416e+14
3.800273832e+14
5.978099065e+14
5.004629907e+14
4.230846729e+14
4.149724299e+14
7.076371963e+14
5.191835514e+14
4.162204673e+14
4.386851402e+14
4.574057009e+14
4.667659813e+14
6.583397196e+14
6.41491215e+14
7.388381308e+14
8.374330841e+14
8.767462617e+14
9.017070093e+14
5.659849533e+14
8.024880374e+14
7.219896262e+14
6.25266729e+14
5.815854206e+14
5.790893458e+14
1.042111215e+14
8.673859813e+13
1.079552336e+14
1.541326168e+14
1.809654206e+14
3.269857944e+14
2.539756075e+14
2.321349533e+14
2.377511215e+14
2.421192523e+14
3.020250467e+14
3.369700935e+14
4.611498131e+14
4.230846729e+14
5.628648598e+14
3.494504673e+14
4.262047664e+14
3.893876636e+14
3.881396262e+14
3.120093458e+14
3.68171028e+14
3.606828037e+14
3.41962243e+14
4.237086916e+14
4.336929907e+14
5.92817757e+14
5.204315888e+14
4.455493458e+14
3.918837383e+14
4.018680374e+14
4.59277757e+14
5.42272243e+14
3.981239252e+14
3.700430841e+14
6.0093e+14
6.021780374e+14
7.631748598e+14
6.09042243e+14
4.243327103e+14
5.890736449e+14
4.75502243e+14
4.386851402e+14
6.240186916e+12
4.118523364e+13
6.364990654e+13
7.550626168e+13
1.653649533e+14
1.235557009e+14
2.233986916e+14
2.720721495e+14
2.26518785e+14
3.288578505e+14
4.336929907e+14
2.91416729e+14
4.436772897e+14
3.58186729e+14
3.138814019e+14
3.045211215e+14
3.126333645e+14
3.319779439e+14
3.962518692e+14
3.794033645e+14
4.455493458e+14
3.806514019e+14
6.277628037e+14
5.397761682e+14
7.095092523e+14
9.116913084e+14
5.116953271e+14
5.241757009e+14
5.285438318e+14
5.66608972e+14
5.66608972e+14
6.533475701e+14
6.408671963e+14
6.258907477e+14
6.427392523e+14
5.672329907e+14
6.227706542e+14
1.028382804e+15
4.811184112e+14
5.547526168e+14
5.971858879e+14
5.921937383e+14
5.547526168e+14
7.201175701e+14
3.107613084e+14
5.478884112e+14
7.357180374e+14
3.375941121e+14
2.389991589e+14
4.024920561e+14
8.218326168e+14
1.091408692e+15
5.872015888e+14
7.650469159e+14
1.190627664e+15
5.235516822e+14
6.976528972e+14
6.889166355e+14
8.262007477e+14
6.633318692e+14
7.369660748e+14
8.84234486e+14
9.3478e+14
6.876685981e+14
8.686340187e+14
1.113249346e+15
1.035871028e+15
1.370345047e+15
1.747876355e+15
1.19686785e+15
9.566206542e+14
9.572446729e+14
1.048351402e+15
1.004046075e+15
1.02526271e+15
9.778372897e+14
1.024638692e+15
9.928137383e+14
9.503804673e+14
1.140706168e+15
1.069568037e+15
1.129473832e+15
1.085168505e+15
1.06332785e+15
3.781553271e+14
4.711341121e+14
9.335319626e+14
5.965618692e+14
8.542815888e+14
1.258645701e+15
1.030878879e+15
1.477676262e+15
1.215588411e+15
2.084846449e+15
6.932847664e+14
8.979628972e+14
1.349128411e+15
7.581827103e+14
6.776842991e+14
1.057087664e+15
1.219332523e+15
8.736261682e+14
1.087040561e+15
1.456459626e+15
1.191251682e+15
1.304199065e+15
1.024638692e+15
1.198115888e+15
1.158178692e+15
1.754740561e+15
1.278614299e+15
1.768468972e+15
1.109505234e+15
1.155058598e+15
1.196243832e+15