/*--------------------------------*- C++ -*----------------------------------*\
| =========                 |                                                 |
| \\      /  F ield         | OpenFOAM: The Open Source CFD Toolbox           |
|  \\    /   O peration     | Version:  v1706                                 |
|   \\  /    A nd           | Web:      www.OpenFOAM.com                      |
|    \\/     M anipulation  |                                                 |
\*---------------------------------------------------------------------------*/
FoamFile
{
    version     2.0;
    format      ascii;
    class       volScalarField;
    location    "3.996";
    object      rhoN_N2;
}
// * * * * * * * * * * * * * * * * * * * * * * * * * * * * * * * * * * * * * //

dimensions      [0 -3 0 0 0 0 0];


internalField   nonuniform List<scalar> 
50792
(
2.652079439e+14
2.808084112e+14
5.803373832e+14
6.196505607e+14
7.700390654e+14
1.150690467e+15
1.419018505e+15
1.131345888e+15
1.379705327e+15
1.339768131e+15
1.516365421e+15
1.375961215e+15
1.804038037e+15
1.591247664e+15
1.846471308e+15
2.147872336e+15
1.773461121e+15
1.810278224e+15
2.026188692e+15
1.92696972e+15
2.451769439e+15
2.473610093e+15
2.145376262e+15
2.373767103e+15
2.710113178e+15
2.140384112e+15
2.121039533e+15
2.918535421e+15
2.473610093e+15
2.531019813e+15
2.907303084e+15
2.647711308e+15
2.614638318e+15
2.728833738e+15
2.434920935e+15
2.545996262e+15
2.788115514e+15
2.397479813e+15
2.588429533e+15
2.752546449e+15
2.933511869e+15
2.926647664e+15
2.046781308e+14
1.828374766e+14
2.808084112e+14
4.212126168e+14
7.413342056e+14
7.806473832e+14
6.957808411e+14
7.837674766e+14
9.166834579e+14
9.915657009e+14
1.081424393e+15
1.131969907e+15
1.259893738e+15
1.628688785e+15
1.898888879e+15
1.704819065e+15
1.629936822e+15
1.671122056e+15
1.799045888e+15
1.712931308e+15
1.675490187e+15
1.646161308e+15
1.901384953e+15
2.17470514e+15
2.487962523e+15
2.26081972e+15
2.131023832e+15
2.347558318e+15
2.412456262e+15
2.292644673e+15
2.393735701e+15
2.065501869e+15
2.154112523e+15
2.014332336e+15
1.922601589e+15
2.433672897e+15
2.134143925e+15
2.56596486e+15
2.359414673e+15
2.438665047e+15
1.877048224e+15
2.004972056e+15
2.227746729e+14
2.196545794e+14
3.881396262e+14
5.716011215e+14
6.93908785e+14
9.18555514e+14
1.035247009e+15
1.049599439e+15
1.223076636e+15
1.360984766e+15
1.613088318e+15
1.319175514e+15
1.776581215e+15
1.57876729e+15
1.642417196e+15
1.532589907e+15
1.772837103e+15
1.964410841e+15
2.239603084e+15
2.233986916e+15
2.058637664e+15
1.839607103e+15
2.319477477e+15
2.259571682e+15
2.028060748e+15
2.303877009e+15
2.109807196e+15
1.653025514e+15
2.268931963e+15
2.452393458e+15
2.219634486e+15
2.029308785e+15
2.172209065e+15
2.533515888e+15
2.443657196e+15
2.403095981e+15
2.544748224e+15
2.649583364e+15
2.711361215e+15
2.463625794e+15
2.126031682e+15
2.260195701e+15
1.884536449e+14
3.288578505e+14
3.700430841e+14
5.17935514e+14
6.901646729e+14
6.09042243e+14
8.155924299e+14
8.405531776e+14
9.210515888e+14
1.307319159e+15
1.628064766e+15
1.536334019e+15
2.0031e+15
1.474556168e+15
1.712931308e+15
2.181569346e+15
1.832118879e+15
2.007468131e+15
1.667377944e+15
2.44178514e+15
2.477354206e+15
2.36066271e+15
2.046781308e+15
2.654575514e+15
2.992793645e+15
2.442409159e+15
2.129775794e+15
1.972523084e+15
2.496698785e+15
2.729457757e+15
2.025564673e+15
2.181569346e+15
1.959418692e+15
2.114799346e+15
2.359414673e+15
2.172209065e+15
2.295140748e+15
2.59903785e+15
2.964712804e+15
2.47049e+15
2.485466449e+15
2.580941308e+15
1.934457944e+14
4.43053271e+14
2.34631028e+14
4.555336449e+14
5.647369159e+14
7.120053271e+14
1.055215607e+15
9.316599065e+14
1.003422056e+15
1.276118224e+15
1.189379626e+15
1.147570374e+15
1.419642523e+15
1.390937664e+15
1.834614953e+15
1.86456785e+15
1.921353551e+15
2.08422243e+15
2.338198037e+15
2.34194215e+15
2.348182336e+15
3.131949813e+15
2.831796822e+15
2.416824393e+15
2.989049533e+15
2.482346355e+15
2.294516729e+15
2.192801682e+15
2.177825234e+15
2.426808692e+15
2.477354206e+15
1.74538028e+15
2.069245981e+15
1.94132215e+15
2.01745243e+15
2.473610093e+15
2.303877009e+15
2.527275701e+15
2.721345514e+15
2.270804019e+15
2.29389271e+15
2.081102336e+15
6.190265421e+14
1.978139252e+14
5.235516822e+14
4.611498131e+14
5.272957944e+14
6.377471028e+14
6.75812243e+14
7.719111215e+14
9.884456075e+14
9.840774766e+14
1.110129252e+15
1.603104019e+15
1.40716215e+15
1.600607944e+15
1.482044393e+15
1.596863832e+15
1.728531776e+15
1.844599252e+15
2.326965701e+15
2.357542617e+15
2.49919486e+15
2.66580785e+15
3.168766916e+15
2.883590374e+15
2.245843271e+15
2.362534766e+15
2.423688598e+15
2.671424019e+15
2.726337664e+15
1.997483832e+15
2.645215234e+15
1.906377103e+15
2.224626636e+15
2.126655701e+15
2.102942991e+15
2.443657196e+15
2.082350374e+15
2.290148598e+15
2.114799346e+15
2.27517215e+15
2.133519907e+15
2.013708318e+15
2.970328972e+14
2.009340187e+14
3.787793458e+14
4.505414953e+14
5.379041121e+14
6.477314019e+14
1.108257196e+15
1.209348224e+15
1.048975421e+15
1.058335701e+15
1.21621243e+15
1.331655888e+15
1.528221776e+15
1.42588271e+15
1.331655888e+15
1.40716215e+15
1.87455215e+15
1.710435234e+15
1.836487009e+15
2.273300093e+15
2.190305607e+15
2.956600561e+15
2.858005607e+15
2.424936636e+15
2.867989907e+15
2.837412991e+15
2.159104673e+15
2.38000729e+15
1.996235794e+15
2.305749065e+15
2.798099813e+15
2.760034673e+15
2.359414673e+15
2.340070093e+15
2.557228598e+15
2.168464953e+15
2.124783645e+15
2.655823551e+15
2.534139907e+15
2.84240514e+15
2.517291402e+15
1.978139252e+15
3.856435514e+14
2.077982243e+14
2.639599065e+14
3.669229907e+14
4.942228037e+14
5.803373832e+14
9.02331028e+14
8.867305607e+14
9.809573832e+14
1.202484019e+15
1.168162991e+15
1.21122028e+15
1.347880374e+15
1.585007477e+15
1.586879533e+15
1.989995607e+15
2.417448411e+15
2.187809533e+15
1.938202056e+15
2.087966542e+15
1.681730374e+15
2.045533271e+15
2.217138411e+15
1.999979907e+15
2.417448411e+15
2.345686262e+15
2.605902056e+15
2.353174486e+15
2.516667383e+15
2.54225215e+15
2.720721495e+15
2.441161121e+15
2.441161121e+15
2.295140748e+15
2.461753738e+15
2.280788318e+15
2.82805271e+15
3.052699439e+15
2.703248972e+15
2.396855794e+15
2.323221589e+15
2.249587383e+15
4.767502804e+14
3.070171963e+14
5.160634579e+14
6.402431776e+14
8.829864486e+14
9.797093458e+14
9.372760748e+14
1.125105701e+15
1.290470654e+15
1.247413364e+15
1.336648037e+15
1.481420374e+15
1.385321495e+15
1.689842617e+15
1.595615794e+15
1.892648692e+15
1.908873178e+15
1.682354393e+15
1.895768785e+15
2.051773458e+15
1.855831589e+15
2.233986916e+15
1.670498037e+15
1.663633832e+15
2.257699626e+15
2.650207383e+15
2.095454766e+15
2.277668224e+15
2.038045047e+15
2.297636822e+15
1.890152617e+15
2.234610935e+15
2.507307103e+15
2.218386449e+15
2.582813364e+15
1.951930467e+15
2.973449065e+15
2.993417664e+15
2.571581028e+15
3.00964215e+15
2.372519065e+15
2.076734206e+15
6.021780374e+14
1.803414019e+14
3.544426168e+14
4.037400935e+14
9.260437383e+14
9.079471963e+14
8.343129907e+14
1.121361589e+15
1.352872523e+15
1.395305794e+15
1.415898411e+15
1.764100841e+15
1.536958037e+15
1.63118486e+15
1.609344206e+15
1.92696972e+15
1.669874019e+15
2.023068598e+15
2.497322804e+15
2.39435972e+15
2.746306262e+15
2.081102336e+15
2.554732523e+15
2.044909252e+15
2.303252991e+15
2.077358224e+15
2.416200374e+15
2.49919486e+15
2.520411495e+15
2.545996262e+15
2.439289065e+15
2.559724673e+15
2.107311121e+15
2.355670561e+15
2.207154112e+15
2.504187009e+15
2.889206542e+15
2.874230093e+15
2.419944486e+15
2.868613925e+15
2.602157944e+15
2.261443738e+15
5.834574766e+14
2.277668224e+14
3.756592523e+14
6.109142991e+14
1.017150467e+15
1.148818411e+15
9.10443271e+14
1.20186e+15
1.413402336e+15
1.45957972e+15
1.550686449e+15
1.429626822e+15
1.397801869e+15
1.365352897e+15
1.601855981e+15
1.795301776e+15
1.742260187e+15
1.832118879e+15
1.789685607e+15
2.090462617e+15
2.037421028e+15
2.587181495e+15
2.373143084e+15
2.185313458e+15
2.150368411e+15
2.152864486e+15
2.200289907e+15
2.464873832e+15
2.243971215e+15
2.392487664e+15
2.466745888e+15
2.153488505e+15
2.643967196e+15
2.446153271e+15
2.52290757e+15
2.342566168e+15
2.88546243e+15
2.769394953e+15
2.84240514e+15
2.611518224e+15
2.695136729e+15
2.374391121e+15
4.492934579e+14
2.583437383e+14
3.962518692e+14
5.516325234e+14
6.83924486e+14
1.107633178e+15
7.956238318e+14
1.228692804e+15
1.513869346e+15
1.354120561e+15
1.461451776e+15
1.918233458e+15
1.732899907e+15
1.525725701e+15
1.575647196e+15
1.711059252e+15
1.882040374e+15
1.903881028e+15
2.452393458e+15
2.386871495e+15
2.124159626e+15
2.326965701e+15
2.184689439e+15
1.972523084e+15
1.925721682e+15
1.992491682e+15
2.250835421e+15
1.961914766e+15
2.56097271e+15
2.05551757e+15
2.531643832e+15
2.257075607e+15
2.343190187e+15
1.777829252e+15
1.726035701e+15
1.877672243e+15
1.873928131e+15
2.187185514e+15
2.224626636e+15
2.216514393e+15
2.112303271e+15
1.772837103e+15
4.798703738e+14
2.0031e+14
3.132573832e+14
4.555336449e+14
6.789323364e+14
9.666049533e+14
8.904746729e+14
1.061455794e+15
1.305447103e+15
1.304199065e+15
1.170035047e+15
1.931961869e+15
1.750996449e+15
1.702947009e+15
1.366600935e+15
1.46394785e+15
1.795925794e+15
1.73602e+15
1.988123551e+15
2.366278879e+15
1.965658879e+15
1.753492523e+15
2.291396636e+15
2.134767944e+15
2.273300093e+15
2.06050972e+15
2.06987e+15
2.557852617e+15
2.992793645e+15
2.678912243e+15
2.180945327e+15
2.216514393e+15
2.443033178e+15
2.444905234e+15
2.370647009e+15
2.471738037e+15
2.45613757e+15
2.049277383e+15
2.121039533e+15
2.105439065e+15
2.199041869e+15
1.706691121e+15
4.455493458e+14
3.170014953e+14
4.324449533e+14
5.241757009e+14
7.756552336e+14
8.854825234e+14
7.288538318e+14
1.219956542e+15
1.024014673e+15
1.314183364e+15
1.186883551e+15
1.46394785e+15
1.148818411e+15
1.747252336e+15
1.684226449e+15
1.478924299e+15
1.620576542e+15
1.807158131e+15
1.635552991e+15
1.594367757e+15
1.796549813e+15
2.084846449e+15
2.043037196e+15
2.735073925e+15
2.787491495e+15
2.496698785e+15
2.688896542e+15
2.929143738e+15
2.682656355e+15
2.04615729e+15
2.173457103e+15
2.423688598e+15
2.225874673e+15
2.205906075e+15
2.085470467e+15
2.84240514e+15
2.519787477e+15
2.01246028e+15
2.21277028e+15
2.177201215e+15
2.372519065e+15
2.029308785e+15
7.188695327e+14
1.722291589e+14
3.644269159e+14
5.360320561e+14
6.034260748e+14
7.469503738e+14
1.014030374e+15
9.697250467e+14
1.242421215e+15
1.441483178e+15
1.321671589e+15
1.395929813e+15
1.285478505e+15
1.437739065e+15
1.751620467e+15
1.725411682e+15
1.515117383e+15
1.900760935e+15
2.130399813e+15
2.056765607e+15
1.734771963e+15
1.94132215e+15
2.112303271e+15
2.318853458e+15
2.233362897e+15
2.332581869e+15
1.836487009e+15
2.153488505e+15
2.438041028e+15
3.020250467e+15
2.78998757e+15
2.459257664e+15
2.091086636e+15
2.082974393e+15
2.506059065e+15
2.377511215e+15
2.519787477e+15
2.609646168e+15
2.436168972e+15
1.82650271e+15
2.192801682e+15
1.787813551e+15
5.659849533e+14
1.547566355e+14
2.521035514e+14
4.037400935e+14
7.257337383e+14
7.369660748e+14
7.744071963e+14
1.100768972e+15
1.148818411e+15
1.351000467e+15
1.374089159e+15
1.240549159e+15
1.38781757e+15
1.649281402e+15
1.513869346e+15
1.729155794e+15
2.406216075e+15
2.071118037e+15
2.013708318e+15
2.344438224e+15
2.253955514e+15
2.295140748e+15
1.865191869e+15
2.020572523e+15
2.192801682e+15
2.263939813e+15
2.839285047e+15
2.793107664e+15
2.310117196e+15
2.583437383e+15
2.321973551e+15
2.070494019e+15
2.285156449e+15
1.867063925e+15
2.690768598e+15
1.933833925e+15
2.361286729e+15
2.030556822e+15
1.896392804e+15
2.109807196e+15
2.121039533e+15
2.162848785e+15
3.856435514e+14
2.115423364e+14
3.032730841e+14
3.968758879e+14
6.140343925e+14
6.184025234e+14
8.068561682e+14
1.140706168e+15
1.055215607e+15
1.25427757e+15
9.366520561e+14
1.221204579e+15
1.708563178e+15
1.327911776e+15
1.453339533e+15
1.513869346e+15
1.35911271e+15
1.780949346e+15
2.458633645e+15
1.997483832e+15
1.763476822e+15
1.769717009e+15
1.919481495e+15
2.131023832e+15
2.148496355e+15
1.87892028e+15
2.516043364e+15
2.155360561e+15
2.446153271e+15
2.362534766e+15
2.310741215e+15
2.277668224e+15
2.535387944e+15
2.77563514e+15
3.267985888e+15
2.940376075e+15
3.12882972e+15
2.788739533e+15
2.653951495e+15
2.906055047e+15
2.370647009e+15
1.932585888e+15
7.569346729e+14
2.421192523e+14
2.770642991e+14
3.201215888e+14
4.91726729e+14
5.129433645e+14
8.212085981e+14
8.655139252e+14
1.210596262e+15
1.309191215e+15
1.224948692e+15
1.262389813e+15
1.298582897e+15
1.393433738e+15
1.623696636e+15
1.794677757e+15
1.717299439e+15
1.830246822e+15
2.511675234e+15
2.59466972e+15
2.087966542e+15
2.057389626e+15
1.910121215e+15
2.445529252e+15
1.848343364e+15
2.270804019e+15
1.843975234e+15
1.671122056e+15
1.655521589e+15
1.800293925e+15
2.144128224e+15
2.14163215e+15
2.13664e+15
2.26518785e+15
2.531019813e+15
2.84739729e+15
2.975321121e+15
2.492330654e+15
2.725089626e+15
2.339446075e+15
2.318229439e+15
1.909497196e+15
4.967188785e+14
1.478924299e+14
3.74411215e+14
4.08732243e+14
5.803373832e+14
7.93127757e+14
1.023390654e+15
9.329079439e+14
1.179395327e+15
1.319175514e+15
1.576271215e+15
1.37845729e+15
1.417770467e+15
1.653649533e+15
2.092958692e+15
1.899512897e+15
1.805910093e+15
1.853335514e+15
2.007468131e+15
2.214018318e+15
2.033676916e+15
2.102942991e+15
2.038669065e+15
2.713233271e+15
2.24646729e+15
2.378135234e+15
2.929143738e+15
2.629614766e+15
2.577821215e+15
2.722593551e+15
2.482970374e+15
2.79934785e+15
2.320725514e+15
2.353798505e+15
2.545372243e+15
2.578445234e+15
2.87111e+15
2.511675234e+15
2.225874673e+15
2.164096822e+15
2.277044206e+15
1.969402991e+15
8.730021495e+14
1.897016822e+14
3.170014953e+14
4.942228037e+14
7.675429907e+14
7.226136449e+14
9.229236449e+14
9.354040187e+14
1.019022523e+15
1.480172336e+15
1.774709159e+15
1.433994953e+15
1.613712336e+15
1.779701308e+15
1.720419533e+15
2.06487785e+15
2.069245981e+15
2.262067757e+15
1.588751589e+15
2.224626636e+15
2.27517215e+15
2.34194215e+15
2.35130243e+15
2.903558972e+15
2.657071589e+15
2.725089626e+15
2.924151589e+15
2.571581028e+15
2.182193364e+15
2.288900561e+15
2.13164785e+15
2.009340187e+15
2.102318972e+15
2.540380093e+15
2.118543458e+15
1.846471308e+15
2.220258505e+15
2.178449252e+15
2.368150935e+15
2.190305607e+15
2.11292729e+15
2.021196542e+15
1.200611963e+15
2.209026168e+14
4.336929907e+14
6.208985981e+14
7.594307477e+14
8.530335514e+14
1.041487196e+15
1.249909439e+15
1.487660561e+15
1.576271215e+15
1.527597757e+15
2.038669065e+15
1.706691121e+15
2.906055047e+15
1.994363738e+15
2.036797009e+15
3.001529907e+15
2.532891869e+15
2.329461776e+15
2.472986075e+15
3.093260654e+15
2.51354729e+15
2.223378598e+15
2.431176822e+15
2.374391121e+15
2.377511215e+15
2.707617103e+15
2.549116355e+15
2.555356542e+15
2.085470467e+15
2.172833084e+15
2.154736542e+15
2.330709813e+15
2.129775794e+15
2.046781308e+15
2.257075607e+15
2.071118037e+15
2.313861308e+15
1.963786822e+15
1.673618131e+15
1.841479159e+15
1.75973271e+15
8.17464486e+14
1.691090654e+14
3.138814019e+14
5.042071028e+14
6.296348598e+14
6.321309346e+14
8.698820561e+14
9.740931776e+14
9.847014953e+14
1.136962056e+15
1.336648037e+15
1.651777477e+15
1.892648692e+15
2.010588224e+15
2.665183832e+15
2.28453243e+15
2.234610935e+15
2.496698785e+15
2.155360561e+15
2.26518785e+15
2.58967757e+15
2.531643832e+15
2.922903551e+15
2.622126542e+15
2.364406822e+15
2.39872785e+15
2.572829065e+15
2.228370748e+15
1.988123551e+15
2.394983738e+15
2.492954673e+15
2.199041869e+15
2.215890374e+15
2.448025327e+15
1.941946168e+15
2.429304766e+15
2.149744393e+15
2.442409159e+15
1.759108692e+15
2.123535607e+15
1.905753084e+15
1.622448598e+15
2.870485981e+14
1.934457944e+14
3.725391589e+14
3.719151402e+14
5.272957944e+14
6.614598131e+14
6.92036729e+14
8.655139252e+14
9.391481308e+14
1.207476168e+15
1.120113551e+15
1.136962056e+15
1.249909439e+15
1.742884206e+15
1.390937664e+15
1.996859813e+15
2.002475981e+15
2.161600748e+15
2.087966542e+15
1.881416355e+15
2.058637664e+15
2.095454766e+15
2.446153271e+15
2.124159626e+15
3.02836271e+15
2.20840215e+15
2.457385607e+15
2.419944486e+15
2.270804019e+15
2.602781963e+15
2.69451271e+15
3.171887009e+15
2.877350187e+15
2.438041028e+15
2.725089626e+15
2.507931121e+15
2.913543271e+15
2.971577009e+15
2.506059065e+15
2.428680748e+15
2.110431215e+15
1.958794673e+15
6.115383178e+14
4.34941028e+14
2.945368224e+14
4.255807477e+14
7.319739252e+14
6.826764486e+14
8.411771963e+14
9.116913084e+14
1.025886729e+15
1.380329346e+15
1.660513738e+15
1.458331682e+15
1.75973271e+15
1.671122056e+15
1.681730374e+15
1.777829252e+15
2.128527757e+15
2.20840215e+15
2.272052056e+15
1.709811215e+15
1.794677757e+15
1.99373972e+15
2.217138411e+15
2.053021495e+15
2.739442056e+15
2.238355047e+15
2.351926449e+15
1.934457944e+15
1.949434393e+15
1.792181682e+15
2.063629813e+15
2.315733364e+15
2.479226262e+15
2.21776243e+15
2.221506542e+15
2.238355047e+15
2.406840093e+15
2.857381589e+15
2.399975888e+15
2.516043364e+15
2.211522243e+15
1.97938729e+15
7.269817757e+14
1.391561682e+14
2.50855514e+14
4.34941028e+14
4.879826168e+14
6.0093e+14
8.455453271e+14
8.555296262e+14
1.059583738e+15
1.437739065e+15
1.581263364e+15
1.702947009e+15
1.807158131e+15
1.649281402e+15
2.057389626e+15
2.318229439e+15
1.956298598e+15
2.248963364e+15
1.923225607e+15
2.463001776e+15
1.814022336e+15
1.925721682e+15
2.013084299e+15
2.227746729e+15
2.289524579e+15
2.504811028e+15
2.177201215e+15
2.176577196e+15
2.100446916e+15
2.195921776e+15
2.124783645e+15
2.567212897e+15
2.665183832e+15
2.541004112e+15
2.370647009e+15
2.336325981e+15
2.159728692e+15
2.412456262e+15
1.972523084e+15
1.884536449e+15
2.129775794e+15
1.884536449e+15
5.50384486e+14
1.329159813e+14
3.519465421e+14
4.255807477e+14
6.059221495e+14
8.499134579e+14
9.641088785e+14
1.022142617e+15
9.85325514e+14
1.284854486e+15
1.14944243e+15
1.296086822e+15
1.719795514e+15
1.927593738e+15
2.12228757e+15
2.17470514e+15
1.799669907e+15
2.004972056e+15
1.714179346e+15
1.966282897e+15
1.651153458e+15
1.617456449e+15
2.169712991e+15
2.214642336e+15
2.192801682e+15
2.297012804e+15
2.760034673e+15
2.850517383e+15
2.727585701e+15
2.682032336e+15
2.600285888e+15
2.225250654e+15
2.799971869e+15
2.562220748e+15
2.640223084e+15
2.38936757e+15
1.943194206e+15
2.212146262e+15
2.502314953e+15
2.345062243e+15
2.04615729e+15
2.671424019e+15
1.790933645e+14
1.716051402e+14
5.815854206e+14
7.332219626e+14
5.578727103e+14
7.60678785e+14
8.043600935e+14
9.372760748e+14
1.028382804e+15
1.101392991e+15
1.223700654e+15
1.541950187e+15
1.497020841e+15
1.89327271e+15
1.868935981e+15
1.905753084e+15
2.515419346e+15
2.507931121e+15
2.278916262e+15
2.61339028e+15
2.471114019e+15
1.951306449e+15
2.11292729e+15
2.209026168e+15
2.640223084e+15
2.162848785e+15
2.590925607e+15
2.623998598e+15
2.99965785e+15
2.295764766e+15
2.692016636e+15
2.615262336e+15
2.406216075e+15
2.57532514e+15
2.378135234e+15
2.273924112e+15
2.308869159e+15
2.020572523e+15
2.178449252e+15
2.158480654e+15
1.895768785e+15
2.272052056e+15
5.035830841e+14
3.238657009e+14
3.544426168e+14
7.644228972e+14
7.831434579e+14
1.063951869e+15
9.054511215e+14
8.935947664e+14
1.033998972e+15
1.095776822e+15
1.367848972e+15
1.514493364e+15
1.222452617e+15
1.827126729e+15
1.865815888e+15
1.936954019e+15
2.157232617e+15
2.159104673e+15
2.077982243e+15
2.195297757e+15
2.587805514e+15
2.084846449e+15
1.985003458e+15
1.985003458e+15
2.21776243e+15
2.053021495e+15
2.416824393e+15
2.60902215e+15
2.770642991e+15
2.663311776e+15
2.660815701e+15
2.758162617e+15
2.747554299e+15
2.69950486e+15
3.06205972e+15
2.476106168e+15
2.877974206e+15
2.489834579e+15
2.702624953e+15
2.366902897e+15
2.234610935e+15
2.102942991e+15
5.129433645e+14
3.001529907e+14
7.85015514e+14
7.631748598e+14
5.553766355e+14
6.358750467e+14
9.435162617e+14
9.865735514e+14
1.190627664e+15
1.248037383e+15
1.388441589e+15
1.618704486e+15
1.614960374e+15
1.705443084e+15
1.872056075e+15
1.573151121e+15
1.89327271e+15
2.552860467e+15
1.905753084e+15
2.333205888e+15
2.331333832e+15
2.013708318e+15
2.130399813e+15
2.384375421e+15
2.54662028e+15
2.272676075e+15
2.579693271e+15
2.17470514e+15
2.794355701e+15
2.940376075e+15
2.366902897e+15
2.222130561e+15
2.639599065e+15
2.197793832e+15
2.299508879e+15
2.826180654e+15
2.448025327e+15
2.466745888e+15
2.522283551e+15
2.350678411e+15
2.472986075e+15
2.467369907e+15
3.170014953e+14
2.221506542e+14
4.180925234e+14
6.489794393e+14
6.146584112e+14
7.244857009e+14
7.825194393e+14
1.139458131e+15
1.291718692e+15
1.131969907e+15
1.419018505e+15
1.546318318e+15
1.852087477e+15
1.931961869e+15
2.10793514e+15
1.835862991e+15
2.014956355e+15
2.156608598e+15
2.630238785e+15
2.086718505e+15
2.395607757e+15
2.253955514e+15
2.304501028e+15
3.332259813e+15
2.498570841e+15
2.311365234e+15
2.357542617e+15
2.339446075e+15
1.968154953e+15
1.867687944e+15
2.058013645e+15
1.881416355e+15
1.603104019e+15
2.052397477e+15
1.908873178e+15
2.276420187e+15
2.379383271e+15
2.605278037e+15
2.406840093e+15
2.228994766e+15
1.943818224e+15
1.961914766e+15
2.446153271e+14
2.290148598e+14
3.531945794e+14
3.893876636e+14
5.329119626e+14
7.50694486e+14
1.05895972e+15
8.062321495e+14
1.203108037e+15
1.312311308e+15
1.099520935e+15
1.252405514e+15
1.329159813e+15
1.857079626e+15
1.722291589e+15
1.648033364e+15
1.977515234e+15
1.551310467e+15
2.085470467e+15
1.90762514e+15
2.605278037e+15
2.02681271e+15
2.26518785e+15
1.857703645e+15
2.107311121e+15
1.722291589e+15
1.980011308e+15
1.980635327e+15
2.310117196e+15
1.985003458e+15
2.14600028e+15
2.366902897e+15
2.250211402e+15
1.993115701e+15
1.966282897e+15
2.358166636e+15
2.132271869e+15
2.237731028e+15
2.567212897e+15
2.204658037e+15
2.560348692e+15
2.150368411e+15
3.912597196e+14
3.088892523e+14
2.964088785e+14
4.018680374e+14
5.453923364e+14
8.068561682e+14
1.00155e+15
1.121361589e+15
1.11137729e+15
1.035871028e+15
1.299206916e+15
1.27362215e+15
1.425258692e+15
1.347880374e+15
1.672994112e+15
1.842727196e+15
2.061133738e+15
2.056141589e+15
2.038669065e+15
2.471738037e+15
2.974697103e+15
2.615262336e+15
2.424936636e+15
2.44178514e+15
2.73257785e+15
2.318229439e+15
2.12228757e+15
2.128527757e+15
2.663935794e+15
2.391863645e+15
2.598413832e+15
2.837412991e+15
2.377511215e+15
2.369398972e+15
2.152240467e+15
2.422440561e+15
2.530395794e+15
2.431176822e+15
2.043037196e+15
2.34631028e+15
2.078606262e+15
1.997483832e+15
3.650509346e+14
3.606828037e+14
3.556906542e+14
4.586537383e+14
6.695720561e+14
6.358750467e+14
7.962478505e+14
9.740931776e+14
1.54507028e+15
1.53571e+15
1.415898411e+15
1.689218598e+15
1.752244486e+15
1.787189533e+15
2.421816542e+15
1.971275047e+15
2.287652523e+15
2.489834579e+15
2.019324486e+15
2.435544953e+15
2.700752897e+15
2.778755234e+15
2.721345514e+15
3.126957664e+15
2.632110841e+15
2.793107664e+15
2.151616449e+15
2.009964206e+15
2.108559159e+15
2.272052056e+15
2.575949159e+15
2.533515888e+15
2.399351869e+15
2.780003271e+15
2.135391963e+15
2.127903738e+15
1.872056075e+15
2.194673738e+15
2.331333832e+15
2.56596486e+15
2.257699626e+15
1.909497196e+15
1.279238318e+14
2.040541121e+14
2.876726168e+14
4.954708411e+14
5.441442991e+14
7.132533645e+14
1.138834112e+15
1.139458131e+15
1.389065607e+15
1.228068785e+15
1.620576542e+15
1.500140935e+15
1.44522729e+15
1.739764112e+15
2.101070935e+15
2.015580374e+15
2.164096822e+15
2.197169813e+15
1.822134579e+15
2.161600748e+15
2.375639159e+15
2.264563832e+15
2.452393458e+15
2.256451589e+15
2.104191028e+15
2.404344019e+15
2.621502523e+15
2.292644673e+15
2.371271028e+15
2.039917103e+15
2.047405327e+15
2.179073271e+15
2.348806355e+15
2.137264019e+15
2.495450748e+15
2.199041869e+15
2.015580374e+15
2.162224766e+15
2.127903738e+15
2.285780467e+15
2.187185514e+15
2.067373925e+15
2.808084112e+14
1.765972897e+14
3.301058879e+14
6.240186916e+14
1.032126916e+15
8.754982243e+14
1.005918131e+15
1.196243832e+15
1.040239159e+15
1.385945514e+15
1.516365421e+15
1.121985607e+15
1.297958879e+15
1.394681776e+15
1.605600093e+15
1.546318318e+15
1.571279065e+15
1.985003458e+15
1.682978411e+15
1.693586729e+15
1.795301776e+15
2.357542617e+15
1.914489346e+15
2.654575514e+15
2.414952336e+15
2.130399813e+15
2.28453243e+15
2.305749065e+15
2.082350374e+15
2.184689439e+15
1.911369252e+15
2.151616449e+15
2.311989252e+15
2.504811028e+15
2.328837757e+15
2.482346355e+15
2.377511215e+15
2.374391121e+15
2.729457757e+15
2.088590561e+15
1.82650271e+15
2.247715327e+15
5.135673832e+14
1.965658879e+14
3.413382243e+14
4.580297196e+14
6.208985981e+14
7.238616822e+14
9.953098131e+14
1.253029533e+15
1.354744579e+15
1.437739065e+15
1.649281402e+15
1.613088318e+15
1.746628318e+15
1.991867664e+15
1.603728037e+15
1.682354393e+15
1.587503551e+15
2.110431215e+15
2.304501028e+15
2.321349533e+15
1.986875514e+15
2.331333832e+15
2.354422523e+15
2.448025327e+15
2.290772617e+15
2.298260841e+15
2.406840093e+15
2.116047383e+15
2.705745047e+15
1.927593738e+15
2.116047383e+15
2.031180841e+15
1.755364579e+15
2.004348037e+15
2.342566168e+15
2.426808692e+15
2.599661869e+15
2.567212897e+15
2.534139907e+15
2.724465607e+15
2.485466449e+15
2.26518785e+15
5.591207477e+14
2.152864486e+14
3.307299065e+14
4.361890654e+14
5.372800935e+14
6.889166355e+14
1.00654215e+15
1.145698318e+15
1.052095514e+15
1.633056916e+15
1.577519252e+15
1.655521589e+15
1.978139252e+15
1.733523925e+15
1.80778215e+15
1.928841776e+15
1.78843757e+15
2.130399813e+15
2.158480654e+15
2.081102336e+15
1.932585888e+15
2.155360561e+15
2.267059907e+15
2.27517215e+15
2.252083458e+15
2.390615607e+15
2.396231776e+15
2.228994766e+15
2.247091308e+15
2.733201869e+15
2.220882523e+15
2.333829907e+15
2.283284393e+15
2.262691776e+15
2.67579215e+15
2.702624953e+15
2.195921776e+15
2.362534766e+15
2.217138411e+15
2.623374579e+15
2.402471963e+15
2.016828411e+15
4.599017757e+14
2.177825234e+14
3.432102804e+14
6.402431776e+14
7.00148972e+14
7.188695327e+14
8.530335514e+14
1.095776822e+15
1.193123738e+15
1.141954206e+15
1.357864673e+15
1.216836449e+15
1.302951028e+15
1.691714673e+15
1.525725701e+15
2.157856636e+15
1.814646355e+15
1.673618131e+15
1.707939159e+15
1.888904579e+15
1.61683243e+15
1.719171495e+15
2.13164785e+15
2.222130561e+15
1.983755421e+15
2.036172991e+15
2.016204393e+15
2.163472804e+15
2.082974393e+15
2.582813364e+15
2.149744393e+15
2.481722336e+15
2.49420271e+15
2.243971215e+15
2.034300935e+15
2.816820374e+15
2.406840093e+15
2.360038692e+15
2.142256168e+15
2.645215234e+15
2.333205888e+15
2.272676075e+15
5.535045794e+14
2.6708e+14
4.106042991e+14
6.957808411e+14
9.048271028e+14
9.628608411e+14
1.032750935e+15
1.185635514e+15
1.291094673e+15
1.428378785e+15
1.49265271e+15
1.748500374e+15
1.417770467e+15
1.570655047e+15
1.552558505e+15
2.029308785e+15
1.674866168e+15
1.833366916e+15
2.137264019e+15
1.928217757e+15
2.69950486e+15
2.357542617e+15
1.921353551e+15
1.87892028e+15
2.314485327e+15
2.076734206e+15
1.992491682e+15
2.039917103e+15
1.724787664e+15
2.05551757e+15
2.497322804e+15
2.326341682e+15
2.280164299e+15
2.497322804e+15
2.197793832e+15
1.994363738e+15
1.823382617e+15
1.837735047e+15
2.081102336e+15
2.142256168e+15
2.151616449e+15
2.277044206e+15
9.123153271e+14
4.985909346e+14
5.709771028e+14
8.311928972e+14
7.937517757e+14
8.149684112e+14
1.166914953e+15
9.129393458e+14
9.715971028e+14
1.088288598e+15
1.371593084e+15
1.932585888e+15
1.684226449e+15
1.546942336e+15
1.704819065e+15
2.153488505e+15
1.755988598e+15
1.920729533e+15
2.237107009e+15
2.420568505e+15
2.002475981e+15
1.658641682e+15
1.723539626e+15
2.047405327e+15
1.97439514e+15
2.267059907e+15
2.200913925e+15
1.88391243e+15
1.819638505e+15
1.94132215e+15
2.204034019e+15
2.276420187e+15
2.738194019e+15
2.252707477e+15
2.092334673e+15
2.016204393e+15
1.829622804e+15
1.681106355e+15
1.767220935e+15
1.89826486e+15
1.739764112e+15
2.074238131e+15
6.43363271e+14
1.959418692e+14
3.987479439e+14
5.141914019e+14
6.533475701e+14
9.928137383e+14
9.191795327e+14
8.374330841e+14
9.659809346e+14
1.083920467e+15
1.337272056e+15
1.376585234e+15
1.599359907e+15
1.314807383e+15
1.669874019e+15
2.014332336e+15
1.579391308e+15
2.251459439e+15
2.224626636e+15
2.835540935e+15
2.01246028e+15
1.910745234e+15
2.024316636e+15
2.185937477e+15
2.31323729e+15
2.217138411e+15
2.893574673e+15
2.619630467e+15
2.168464953e+15
2.243971215e+15
2.34631028e+15
2.595293738e+15
2.356294579e+15
2.409336168e+15
2.182193364e+15
2.549116355e+15
2.144752243e+15
1.887656542e+15
1.714179346e+15
2.101070935e+15
1.892024673e+15
2.027436729e+15
2.907927103e+14
3.01401028e+14
6.976528972e+14
9.166834579e+14
9.878215888e+14
1.211844299e+15
1.015278411e+15
1.308567196e+15
1.154434579e+15
1.626816729e+15
1.380329346e+15
1.691090654e+15
1.686722523e+15
1.905753084e+15
1.899512897e+15
1.875176168e+15
1.893896729e+15
2.204034019e+15
2.104191028e+15
2.378759252e+15
2.467369907e+15
2.100446916e+15
2.219010467e+15
2.411208224e+15
2.337574019e+15
2.526027664e+15
2.730705794e+15
2.64209514e+15
2.464249813e+15
2.535387944e+15
2.495450748e+15
2.620254486e+15
2.654575514e+15
2.683280374e+15
2.598413832e+15
2.93288785e+15
2.896070748e+15
2.693888692e+15
2.896070748e+15
2.790611589e+15
2.69950486e+15
2.767522897e+15
1.404666075e+15
1.155058598e+15
1.257397664e+15
1.67424215e+15
1.820262523e+15
1.880792336e+15
2.256451589e+15
2.032428879e+15
2.519163458e+15
2.015580374e+15
2.403095981e+15
3.27173e+15
2.582813364e+15
3.234288879e+15
2.911671215e+15
2.907927103e+15
2.793731682e+15
3.121341495e+15
2.829924766e+15
2.571581028e+15
3.868291869e+15
3.79153757e+15
3.216816355e+15
3.06205972e+15
3.015258318e+15
3.064555794e+15
3.509481121e+15
4.410564112e+15
3.759088598e+15
2.938504019e+15
3.261121682e+15
3.470167944e+15
3.475784112e+15
3.312291215e+15
3.206208037e+15
3.620556449e+15
3.494504673e+15
4.19714972e+15
4.359394579e+15
4.225230561e+15
4.928499626e+15
3.389045514e+15
1.825254673e+15
1.970651028e+15
1.550686449e+15
1.980011308e+15
1.644289252e+15
2.68515243e+15
2.577197196e+15
4.149724299e+15
2.919783458e+15
2.852389439e+15
3.181871308e+15
4.158460561e+15
4.564696729e+15
3.623052523e+15
3.564394766e+15
3.707919065e+15
3.799025794e+15
4.456117477e+15
3.342244112e+15
4.29699271e+15
4.582169252e+15
4.304480935e+15
4.624602523e+15
3.754720467e+15
3.820866449e+15
4.311969159e+15
4.73130972e+15
4.369378879e+15
4.906034953e+15