/*--------------------------------*- C++ -*----------------------------------*\
| =========                 |                                                 |
| \\      /  F ield         | OpenFOAM: The Open Source CFD Toolbox           |
|  \\    /   O peration     | Version:  v1706                                 |
|   \\  /    A nd           | Web:      www.OpenFOAM.com                      |
|    \\/     M anipulation  |                                                 |
\*---------------------------------------------------------------------------*/
FoamFile
{
    version     2.0;
    format      ascii;
    class       volScalarField;
    location    "3.996";
    object      SOFP_mixture;
}
// * * * * * * * * * * * * * * * * * * * * * * * * * * * * * * * * * * * * * //

dimensions      [0 0 0 0 0 0 0];


internalField   nonuniform List<scalar> 
50792
(
9.025314504e+10
0.0001550672234
9.46174678e-05
0.0001035579016
0.0002154548393
0.0002088264527
0.000229114342
0.0001986845931
0.0002539856038
0.000149249463
0.0002445491588
0.000401881306
0.0002299194503
0.0001993385005
0.0004507900216
0.0004497923329
0.0003642753531
0.0005092251232
0.000480414166
0.0003880801696
0.0004665077836
0.0005347253577
0.0004805910787
0.0005974229267
0.000612967035
0.0005518771133
0.0004811552354
0.0004785118519
0.0005324217682
0.0004809877135
0.0006815488778
0.0005926583554
0.000672974504
0.0008114819573
0.0004642201686
0.0006549666002
0.000637225621
0.0005221343367
0.0006500680416
0.0008535346342
0.0007748841858
0.0006631467123
1.424168121e+11
1.811668999e+11
2.89610617e-05
0.0001243245128
8.040986042e-05
0.0002341474325
0.0001357953565
0.0001726649799
0.0002665331206
0.0002085273642
0.0002299698444
0.0001955523734
0.000322010822
0.0003393163613
0.000292646763
0.0003155648422
0.0002813673765
0.0002990412248
0.000332061818
0.0003013899952
0.0003688319379
0.0002852349943
0.000471566647
0.0004920751539
0.0004517171014
0.0004423059536
0.0002957865981
0.0003941981083
0.0004801298232
0.0004084255545
0.000411939782
0.0003733592842
0.0005198634283
0.0005643082345
0.0004197894787
0.0003521634064
0.0005731371822
0.0005057824274
0.0004647191427
0.0005505128479
0.0005685442374
0.0005449212868
3.619374409e-05
0.0001159330504
9.419482731e-05
0.0001157408487
0.0001452705997
0.0001540258432
0.0002598257418
0.0002903199218
0.0002613282227
0.0002764267567
0.0002431157712
0.0003979367095
0.000327184024
0.0003385014345
0.0003896354236
0.0004135166544
0.0004152189345
0.0003562515145
0.0003616113886
0.0003828580852
0.0004253019184
0.0004072128566
0.0004664776335
0.0004953937862
0.0004419721171
0.0005094880115
0.000368677459
0.0003246550572
0.0004028676767
0.0004771958509
0.0004490792241
0.0004917830362
0.0004941121718
0.0004801603809
0.000431778735
0.0004399115439
0.0003673258351
0.0004434209346
0.0006453271131
0.0006017199517
0.0003965446727
0.000568605179
7.250063169e+10
1.109150509e+11
6.760770023e-05
0.0001277484903
0.000128941943
0.0004158366012
5.879238734e-05
0.0001705461794
0.0002190156002
0.0001478511963
0.0002653842464
0.0003217308345
0.0002916263653
0.0003552824823
0.0003148654446
0.000306075623
0.0003246816226
0.0003526055483
0.0003642091564
0.0005053167464
0.0004065121307
0.0004600850161
0.0003676929739
0.0005008927073
0.0004948626794
0.0004748173067
0.0004244333767
0.0004543714986
0.0004630824364
0.0004707800635
0.0004440745398
0.0005392283521
0.00045175152
0.0004207195437
0.0004670798098
0.0004043982467
0.000499163776
0.0004792911799
0.0004971776738
0.0004860852925
0.0005422494454
0.0006008645195
8.322019166e+10
0.0001151587425
9.270428657e-05
0.0001208865867
0.0001579097357
0.0001543587096
0.0002285749293
0.0001896368173
0.0002164904649
0.0003112129275
0.0002759934753
0.0004092693389
0.0002689426253
0.0003748231921
0.0003223745247
0.0004052435478
0.0003168308133
0.0004580641106
0.0005417360485
0.0003562007687
0.0004402555311
0.000602947998
0.0005159956804
0.0005140757323
0.0005281598068
0.0005333482893
0.000456662006
0.0004028090182
0.0003581438424
0.0004124279463
0.0005941812904
0.0003976968704
0.0003823203842
0.000532943686
0.0003447250993
0.0005374856622
0.0004460050134
0.0005139860619
0.0004408805961
0.0003977818217
0.0004118978075
0.0005772958969
5.966883011e-05
9.40045532e+10
1.8481081e+11
9.885241933e-05
9.744496457e-05
0.0001171177095
0.0001353783419
0.0001720713433
0.0001846826461
0.0002489569543
0.0003059585281
0.0002494200195
0.0001861369095
0.0002740243507
0.0003576224399
0.0002674906446
0.0003781625044
0.0004421213064
0.0003525042023
0.0004048520998
0.0003550289371
0.0005124209408
0.0005704349235
0.0004276329672
0.0005892260414
0.0004702222949
0.0005107640471
0.0004735521169
0.0004984376514
0.0004572655634
0.0004254154452
0.0003755557071
0.0003453999118
0.0003932483527
0.0004600587508
0.0004865445402
0.0003709141792
0.0004907694828
0.0004730679584
0.0003791665465
0.0004807004061
0.000514413133
1.625405973e+11
3.99757703e-05
6.502248919e-05
0.0002482369155
0.0001207717139
0.0002709869186
0.0001609197851
0.0002168232686
0.0002444683399
0.0002817162288
0.0002878248767
0.0002318872785
0.0002731802644
0.0002772234978
0.0003767165963
0.0003169830203
0.0003691928144
0.0003624294877
0.0004450557543
0.0003985366122
0.0004707894336
0.000502848343
0.0004368514117
0.000486349417
0.0004633524864
0.0005104269163
0.0003517970044
0.0003688163622
0.0004093230294
0.0003904847871
0.0003380559071
0.0005791332597
0.0004829001081
0.0003078911353
0.0005758789274
0.0003353700402
0.0003192325553
0.0005463682846
0.0005063001026
0.000475867217
0.0004897634017
0.000571629189
1.355167209e+11
8.462636684e+10
0.0001357805827
0.0001531331782
0.0002543984608
0.0001381267563
0.0001527008708
0.0002286100196
0.0001903905759
0.0003030095096
0.0002382020716
0.0003902742852
0.0003103284953
0.0003270397039
0.0003671908404
0.0003606556825
0.0003600857977
0.000388602924
0.0003651681997
0.0004087886485
0.0004267436876
0.0004209963749
0.0005517248679
0.0004014205576
0.0004678036126
0.0005448771882
0.0004379756104
0.000396373521
0.0004198411834
0.0003754344167
0.0006779843601
0.0004449253453
0.0005454275441
0.0004314281566
0.0004286051766
0.0005952883304
0.0005189053322
0.0005668047111
0.000395598779
0.0005192342792
0.0004996431862
0.0004236170926
1.799894357e+11
1.136908605e+11
9.303831765e-05
7.114264154e-05
0.0001030215185
0.0001634312527
9.325437234e-05
0.0001945301012
0.0002914681221
0.0003012756142
0.000306100568
0.0001728762567
0.0004266196623
0.0003311389883
0.0003520717817
0.0003402596857
0.0003401635881
0.0004897643379
0.0004207121858
0.0004026712361
0.0003528793258
0.0003745772502
0.0002991955436
0.0003367930242
0.0003712798222
0.0004298566295
0.0004809762216
0.0006083545739
0.0003962415865
0.0005070350489
0.0005055460027
0.0003705574099
0.0004260662404
0.0004715214998
0.0005494593002
0.0006136896639
0.0005192644305
0.0006710664463
0.000389576432
0.0004669019768
0.000416349593
0.0003661980396
2.412612415e+11
1.889943553e+11
5.025244965e-05
0.000151410367
0.0001140128839
0.0001182227509
0.0001311894807
0.0001826318881
0.0002031743206
0.0002530530243
0.0003115028627
0.0003615416252
0.0003193203121
0.0003379966013
0.000261000157
0.0003355710888
0.0002684697405
0.0003956729201
0.0004497690745
0.0003856467925
0.0005407662546
0.0002804711608
0.0003745350261
0.0002967153952
0.0004436510992
0.0004187508119
0.0004759949304
0.0005535344464
0.0005460517169
0.0004912002016
0.0004032269657
0.0004928213258
0.0005031510056
0.0005813279021
0.0005226254238
0.0006093572455
0.0005134731306
0.0004489965317
0.000504273838
0.0004036997467
0.0005057491102
0.0005206140592
2.23778577e+11
2.089526169e+11
9.219965709e-05
6.003597303e-05
0.0001577303021
0.0001703522202
0.0002231601227
0.0001736691861
0.0002744176309
0.0002315333544
0.0002560568707
0.000263948566
0.0003216782617
0.0003761430588
0.0003266327204
0.00028664648
0.0003833063431
0.000391634964
0.0003473685231
0.0003580076465
0.0004259520116
0.0006069197429
0.0005241178323
0.0003877626719
0.0003790054266
0.0004377659577
0.000427415352
0.0005309024322
0.0004945043835
0.0004945347839
0.0004361873623
0.0003692479401
0.0004991628109
0.0004314637739
0.0004423577716
0.0005227039062
0.0005165435738
0.0005679653993
0.0005110503711
0.0006142561924
0.0005412144506
0.0005832048378
1.669438304e+11
4.852638438e-05
2.593625997e-05
9.257480486e-05
0.0001272535039
0.0001977909065
0.000192404873
0.0002311641159
0.0001998963252
0.0002598948089
0.000319265674
0.0003289255277
0.0003464086997
0.0004151904533
0.0002451514332
0.0002897332934
0.0004157169262
0.0003902386705
0.0004539207732
0.0005033009875
0.000385506655
0.0003721294314
0.0004854123899
0.0003632144959
0.0003836889304
0.0004427050057
0.0004300674352
0.0004717473371
0.0004609332428
0.0003886023229
0.000460736984
0.0003839388453
0.0005087971341
0.0003962091207
0.0002783555915
0.0006060881956
0.0005528492504
0.0004026034878
0.0003336029123
0.0004892498892
0.0005218587065
0.0005263514111
6.529346229e-05
2.341348827e-05
5.299639553e-05
0.0001312032238
0.0001258788236
0.000175775224
0.000225498693
0.0002496601728
0.0001732205458
0.0002230537593
0.0003046583252
0.0002664346419
0.0004610528284
0.0003377367964
0.0003044717451
0.0003801554035
0.0003240552927
0.000327632777
0.0004018592473
0.0005385954823
0.0002799738836
0.0004401909767
0.0005139915832
0.0003279465481
0.0004570484636
0.0003671078059
0.0004942545794
0.000507276464
0.0005540970063
0.0004731761778
0.0005715594215
0.0005004576114
0.0007024478894
0.0006792740166
0.000544686661
0.0006220683843
0.0005590840311
0.0003652426332
0.000443403386
0.0004565121053
0.0003937224582
0.000728852087
3.462242398e+11
8.669071164e-05
9.821712065e-05
9.325895923e-05
0.0001952462252
0.0001561154194
0.0001743344337
0.0001879739696
0.000223156359
0.0002431310069
0.0002652666922
0.0003131394833
0.0002450018674
0.0002727009865
0.000300671432
0.0004190125145
0.0004068961607
0.0003385919115
0.0004129587238
0.0004140290685
0.0003688904869
0.0003698065962
0.0003857969216
0.0005493216803
0.0005478775625
0.000563145075
0.0004057212251
0.0005037014189
0.0005520175514
0.0003551531276
0.0004867715019
0.0005483888319
0.0004441529164
0.0003863412254
0.0004514688512
0.0006042434242
0.0003476703368
0.0004611064311
0.0004235661645
0.0004249962935
0.0004344129223
0.0003602245971
5.105183076e+11
7.473353409e-05
8.414501435e-05
9.43471747e-05
0.0001549772528
0.0001608835584
0.0003066796276
0.0001880042674
0.0002444319191
0.0002447742775
0.0003273182988
0.0002769845888
0.0002945738451
0.0004105434192
0.0003056630877
0.0002361322532
0.0003578942739
0.0004433603732
0.0004030656164
0.0004623714131
0.0003432122711
0.0003562191374
0.0004441071833
0.0006728713763
0.0004537870018
0.0004471038738
0.000419841918
0.0004041609055
0.0004137284195
0.0004508790869
0.0004726933113
0.000398756132
0.0003716561228
0.0004715692924
0.0006542908459
0.0003862173728
0.0005222798907
0.0004949741294
0.0005343512279
0.0003925845149
0.0005694419071
0.0004863551087
2.548633342e+11
1.798584693e+11
2.763845072e+11
0.0002616113089
0.000125130466
6.891437331e-05
0.0001286471082
0.0002077674739
0.0003685403569
0.0002117512212
0.0003634908686
0.0003919136728
0.0003337033009
0.0002758738546
0.0003833190804
0.0004411435785
0.0003913296625
0.0003449168976
0.0004454617263
0.0003638105797
0.0004766571891
0.000430536431
0.0004424877141
0.0003584499605
0.0004583800471
0.000540901791
0.0004975186767
0.0005019363986
0.0004396507178
0.0004848647068
0.0004009386983
0.0003746315727
0.0004045163848
0.0003210994638
0.0003746202436
0.0004786715982
0.0004882944983
0.0003798040978
0.0003909394921
0.000425026477
0.0005887437863
0.0003618842809
1.551103896e+11
2.098853164e+11
0.0001118149249
9.29123948e-05
0.0001063554132
0.0002774385823
0.0001860966377
0.0002580864239
0.0001932899782
0.0002826835755
0.0003395742536
0.000204660559
0.0003090837713
0.000289483637
0.000353990166
0.0003525367655
0.0002935453097
0.0003741372426
0.0005196651971
0.0003992870815
0.0003325045756
0.000431142028
0.0003712352191
0.0004536343743
0.0004938271664
0.0003577282733
0.0005302056522
0.0004647908771
0.0004830919092
0.0003981693363
0.000372993551
0.0005987515966
0.0004087305618
0.0005469976719
0.0006925332642
0.00055992931
0.0005519948787
0.0006386586532
0.000626563981
0.000593034594
0.000483723515
0.0005049206199
3.810019165e+11
2.980833254e-05
6.197745606e-05
0.0001336895282
8.748803176e-05
0.0001963032652
9.032728071e-05
0.0002293220641
0.0002022656698
0.000243794977
0.0002266075334
0.0002910120435
0.0002733792354
0.0002921983245
0.0001964199164
0.0004156625631
0.0003390770304
0.0004283673934
0.0004438557485
0.0004118297958
0.0004011947923
0.0003721729467
0.0003200861235
0.0004028857248
0.0004674928491
0.0004091679082
0.0004012478938
0.0003167377436
0.0003972371151
0.0004954653121
0.0003841266157
0.0005181549798
0.0004810276974
0.0004268810329
0.0005559100877
0.0005709357511
0.0005537499001
0.0003720864211
0.0004241066408
0.0005788091421
0.0004788977339
0.0004845327192
2.002960123e+11
2.076745576e+11
4.702558526e-05
0.0002290187702
0.0001192728696
0.000181022883
0.0001450354398
0.0002844764379
0.0001900098773
0.000312298374
0.0003098761732
0.0002283128053
0.0003050204309
0.0003297216328
0.0003476887941
0.0002764441855
0.0003634032972
0.000387281548
0.0003981391059
0.0003195497188
0.0003618876549
0.0005037671104
0.0003450529054
0.0005503851966
0.0004702986654
0.0003962810031
0.0005184937829
0.0005201091836
0.0005061305545
0.0005027467878
0.0004858051928
0.0005036217888
0.0004450983228
0.0004127226982
0.0005355333092
0.0003868243145
0.0005410085787
0.0004634002971
0.0004811679413
0.000441097417
0.0004348925955
0.000566704232
3.595253664e+11
9.754135707e+10
9.220827872e-05
0.0001838626035
0.0001158316522
0.0001513645272
0.0001934554022
0.0001845013967
0.0002714633294
0.0002287778372
0.0004600768345
0.0003635036733
0.0003353843579
0.000306337047
0.0003499914156
0.0003875377092
0.0004868103957
0.0003229313472
0.0003382316222
0.0003913388557
0.0003918805206
0.0005373121473
0.0006221652482
0.0005673771908
0.0006139120659
0.0004542727925
0.0004727529548
0.0005264343645
0.0003793737067
0.0003514087477
0.0003843080278
0.0003596802287
0.0003600453793
0.000518250614
0.0004918833551
0.0004942398966
0.0004830890069
0.0004113046632
0.0004627081515
0.000479673652
0.00040572918
0.0003614650138
0.0002167268845
9.876817273e-05
5.926486021e-05
9.47567785e-05
0.0001375305493
0.0001672173493
0.0002100330871
0.0001802535084
0.000260386304
0.0003015916562
0.0003101341376
0.0003240887113
0.0003753299312
0.0004297532527
0.0003605218115
0.0003910797253
0.0004823109713
0.0004658225224
0.0004736293853
0.0004546444786
0.0005721935822
0.0005541665243
0.0005058627003
0.0003740691835
0.0004432420507
0.0003914221916
0.0004230046365
0.0004384138303
0.0005048208674
0.0004400412119
0.0004787182232
0.0004780949313
0.0003477178477
0.0003743701597
0.0003031357085
0.0004662048446
0.0004324960539
0.0005076525394
0.0004601691527
0.0004263617608
0.0003737193516
0.0002530604316
3.405495316e+11
0.0001390323464
5.410514427e-05
5.366413105e-05
8.517820344e-05
8.514902255e-05
0.0002053315683
0.0002710116287
0.0001830762138
0.0002288207372
0.0003279631722
0.0003044423947
0.0003224019226
0.0004149858551
0.0004238008259
0.0004756296608
0.0004368874078
0.0004630877545
0.0004549282995
0.0003866099826
0.0004292125752
0.0005622172038
0.0004776003758
0.0004388366243
0.0003875167603
0.0005377455453
0.0005089757941
0.0004433731927
0.0003632077851
0.00050131561
0.0004623811843
0.0003781182884
0.000396523125
0.0005365330497
0.0004663269124
0.0004764236401
0.0004467439656
0.0004749653836
0.0002581423331
0.0003587922874
0.0003866448851
0.0004067476323
1.007178525e+11
2.585025157e-05
8.653568408e-05
0.000124367479
0.0001293692941
0.0001229019342
7.125674845e-05
0.0001961095501
0.0002362878985
0.0001544111371
0.0002850645879
0.0002455312357
0.0002822711058
0.0002900660989
0.00026592464
0.0003294069763
0.0003737825843
0.0002867857139
0.0003675190287
0.0004443372582
0.0004191641048
0.0003871321629
0.0005363594553
0.0003918356103
0.0006675764563
0.0005000966491
0.0005725622389
0.0004936962361
0.000439329139
0.0003911211955
0.0004508719521
0.0005569640189
0.0004557147048
0.0005451765818
0.0005323865813
0.0004596323735
0.0006242789853
0.0005749225538
0.0004740033748
0.0004316582262
0.0004191496781
0.0004737963611
0.0001072723432
0.000103342174
0.0002230249974
9.627829956e-05
0.000109919101
0.0002220044106
0.0002167493662
0.000307811813
0.0001492944833
0.0002083492463
0.0003024853656
0.0002822477452
0.0004529978331
0.0003133102566
0.0003063838482
0.0003328786978
0.0004129724586
0.0005460748829
0.0003170959519
0.0003192947628
0.000327406418
0.0003409160293
0.0004624263064
0.000414621632
0.0004267046428
0.0003859332151
0.0003739529374
0.0004288262331
0.0003709991254
0.0004225680611
0.0004481176104
0.0004582815737
0.0004964790323
0.0005655169493
0.000471640432
0.0004174771095
0.0004546323225
0.000459286398
0.0005959779833
0.0004425602622
0.0004218474471
0.0004700648038
5.174225325e+11
7.094435887e+10
1.188372429e+11
5.809368063e-05
0.0001700814643
0.0001285816305
0.000122883663
0.0002994652099
0.0002342396178
0.000233859018
0.0003602576886
0.0002957487069
0.0003175491672
0.0003979740938
0.0004409308931
0.0004197335926
0.0003933320995
0.0004567411636
0.0003612485821
0.0003829513676
0.0004333380276
0.0004390991841
0.0003854937485
0.0003517622354
0.0004286620497
0.0004663064684
0.000492016561
0.0004591119358
0.0003305094131
0.0004582765418
0.0004324489146
0.0003217493433
0.0003761337989
0.0005623635419
0.0006843095472
0.0002389764705
0.000521181506
0.0004158202139
0.0004789407787
0.0004018810601
0.0004531371508
0.0003511286943
5.319666409e+11
7.303634976e+10
5.550479345e-05
0.0001835599844
0.0001100795313
0.0001597702856
0.0001187930316
0.0001888707207
0.0001521064729
0.0002029554947
0.0003053569434
0.0002552734612
0.0003348148299
0.0003237969539
0.0003724344376
0.0003514184517
0.0003093948332
0.0003752278757
0.0002775577759
0.000491616894
0.0003991929702
0.0002102367805
0.000418627783
0.0004250653578
0.0003742469233
0.0005223408312
0.0003998664715
0.0004960803299
0.0005480257305
0.0004363951679
0.0004406165215
0.0005543282319
0.0004187392091
0.0004248779269
0.0004768470341
0.0004457150399
0.0004425773941
0.000511425147
0.000415030233
0.0003962597772
0.0005583101787
0.0003969346747
1.242296571e+11
7.846676595e+10
0.0001181904028
6.925189289e-05
0.0001079286316
0.0001334491208
0.0002703749105
0.0003021176229
0.0001213268579
0.0002743851092
0.0002836710679
0.0003737012128
0.0003671176253
0.0003750611695
0.0002861760795
0.0003347863962
0.0004015953009
0.0004502006229
0.000474716075
0.0005632090641
0.0004300980748
0.0004126520698
0.0003966402201
0.000379367975
0.0004244738713
0.0003036257993
0.0003854938711
0.0005889862795
0.000522666966
0.0004568949799
0.0005186094164
0.000443289294
0.0003942096108
0.000466730937
0.0004391253202
0.0004428538489
0.0003790717199
0.0004194448624
0.0002967793138
0.0004353909843
0.0003678171752
0.0004076442664
2.347834106e+11
1.027665654e+11
0.0001102340284
8.625999305e-05
0.0001190689579
0.0002057359146
0.0001234490798
0.0001992836071
0.0002203899372
0.0002470780749
0.0003474064643
0.0002689570016
0.0002342456796
0.0004228406949
0.0004944312729
0.000369281702
0.0003755800224
0.0004049785589
0.0004589185763
0.0004251780362
0.0005218270008
0.000452819787
0.0003154217341
0.0003797973376
0.0005304498206
0.0004561746011
0.000451071936
0.000607994454
0.0004769260563
0.0004431091259
0.0004139098812
0.0005244042082
0.0005441878996
0.0005380977336
0.0006354272831
0.0005977439684
0.0004853458776
0.0004069569583
0.0005573528315
0.0004769797452
0.0004819102981
0.0003523417418
3.688241393e+11
1.240978732e+11
0.0001414344487
0.0001255239317
0.0001144834739
0.0001644734772
0.0001601583902
0.0001872865649
0.0001481719152
0.0002893659418
0.0002412508987
0.0002805576022
0.0003143571695
0.0003496662627
0.0004148089822
0.0003293049812
0.0003666431602
0.0003902655542
0.0003176368387
0.0003955928412
0.0004484435776
0.0003466884134
0.0004449378645
0.0004948719548
0.0004749472361
0.0004491097817
0.0006262696973
0.0004609829262
0.0004861691725
0.0004339735518
0.0005193574451
0.0004607776122
0.0005061511497
0.0002867898775
0.0004301482277
0.00050722131
0.000503383694
0.0003711422093
0.0005048754187
0.0004719633361
0.0005156158209
0.0005173325971
6.259639963e-05
4.918589136e-05
7.456000184e-05
0.0001082869223
0.0001638837324
0.0001585341499
0.0001599160225
0.0001824403227
0.0002021403901
0.0003440119267
0.0003734293497
0.0002793270928
0.000320373541
0.0003388669038
0.0003523331502
0.0003527500175
0.0003920971411
0.0004523821712
0.0004885313154
0.0003939817673
0.0003593642482
0.0003673676199
0.0003818443821
0.0005317112208
0.0004490637402
0.0005633480596
0.0004407426295
0.0003325427218
0.0002986115958
0.0003763526765
0.0004678590788
0.0003657836758
0.0003434612772
0.0003304176822
0.000380613978
0.0004596862692
0.000453068897
0.0004981474812
0.0004403231569
0.0004390939329
0.0003242711735
0.0002985210638
1.877895691e+11
1.674037562e-05
3.709208461e-05
0.0001787529559
0.0002052374312
0.0001614360228
0.0002642829943
0.0001481865911
0.0002067363089
0.0002010140075
0.0002200445861
0.0003173119796
0.0003238226811
0.0003938035186
0.0003646955207
0.0004190682255
0.0004014708376
0.0004000322033
0.0003720925196
0.0004040216627
0.0004598472532
0.0003951773719
0.0004245528173
0.0004328916233
0.000523150447
0.0003076269973
0.0003601160215
0.0003586157645
0.0004101806919
0.0004905077528
0.0004429786542
0.0003492583248
0.0003916949288
0.0003778922268
0.0003888974095
0.0004648723623
0.0003871039942
0.0004234804859
0.0004889435394
0.0005316845256
0.0005250667538
0.0004640633876
2.93495544e+11
9.509370117e-05
6.554289322e-05
0.0001286281729
0.0003146453964
0.0002258909199
0.0001752000116
0.0003723929938
0.0001715317584
0.0001786726664
0.0003232268508
0.0002745753975
0.0002862377959
0.0002894628169
0.0002890042632
0.0002924644409
0.0002640251249
0.0003903540693
0.0003959314046
0.0004408778551
0.0005448699326
0.0005340345835
0.00043910298
0.0004463560116
0.0004723924596
0.0003635638056
0.0003929030953
0.0004502773047
0.000454955109
0.0004324076713
0.0004780451364
0.0005009415069
0.0005341759867
0.0004530799101
0.0004895875583
0.0003804436678
0.0004168259582
0.000495235473
0.0003685156231
0.0005227141248
0.0005414916014
0.000328797845
5.113102909e-05
8.183287961e-05
8.175052508e-05
0.0001369762709
9.430115664e-05
0.0001238531902
0.0003880629531
0.0002524636133
0.0001986997284
0.0002193463602
0.0002955990623
0.0003428344998
0.000312704224
0.0004058702869
0.0003678619993
0.0003532628657
0.0003416250611
0.0003762430452
0.0004841040666
0.000492728045
0.0006017502869
0.0005187456922
0.0005637894172
0.0004880117587
0.0004939646161
0.0005606717009
0.0004949117575
0.0004218129729
0.0004327679923
0.0003909844452
0.0003901412865
0.0004787148974
0.0004697933325
0.0004504365302
0.0004722853359
0.0004190132914
0.0004621062218
0.0005007059443
0.0004235929909
0.0004450214255
0.0004635975374
0.0003949369538
9.604826977e+10
3.728168988e-05
1.363946216e+11
0.0001601436707
0.0001130855667
9.418043305e-05
0.0001143709052
0.0002520398906
0.0002989457648
0.0002072236014
0.0003300598161
0.0002802775203
0.0002724596878
0.0003197433105
0.0003419460508
0.0003717147346
0.0003160684391
0.0004147275842
0.0004497536087
0.0002718395216
0.0003884615615
0.0004551828486
0.0004126776328
0.0004051135926
0.0004062243255
0.0004514521465
0.0005034828364
0.0004062065391
0.0005476554837
0.0004283887192
0.0003519874556
0.0003689441442
0.0003828723018
0.0005041457447
0.0004715609696
0.000440355772
0.000445916413
0.0004666066332
0.0004421454494
0.0004138759395
0.0003278298625
0.0004830032753
1.105265572e+11
5.194819578e-05
7.49031319e-05
0.0001023187631
0.0001224250612
0.0002129846891
0.000219143285
0.0002006652978
0.0001738614767
0.0002009432143
0.0002646341126
0.0002569505768
0.0002431483231
0.0001521512008
0.000359240942
0.0002961034129
0.0003822945407
0.0004295399305
0.000251853671
0.0004618335926
0.0003872512023
0.0006001472088
0.0004422825186
0.0004612484844
0.0004276406943
0.0005287431328
0.0005822070737
0.0004683818416
0.0004050168832
0.0003709203714
0.0003690973852
0.0003372991782
0.0004689051703
0.0004778566166
0.0003123155555
0.0004677923627
0.0004388578107
0.0005477254136
0.0004537537115
0.0004003758504
0.0003493964122
0.0003154922303
1.978566803e+11
0.0001113328797
1.624804401e+11
9.620432115e-05
0.0001733047995
0.000281053577
0.0001633698504
0.0002179627838
0.0002988707871
0.0002968331485
0.000236873456
0.0003874149456
0.0003718931219
0.000279084949
0.0002581157793
0.0003038510634
0.0003513375179
0.0003364098535
0.0004763836997
0.0004794644813
0.0002896192352
0.0004286285352
0.000394697189
0.0003565010502
0.0003467703533
0.0004258385593
0.0004298678602
0.0004086257705
0.0004904026482
0.0004715238594
0.0003309233882
0.0003385544381
0.0003626121146
0.0004886728649
0.0004096234636
0.000301720153
0.0003931675913
0.0004846728086
0.0005346733309
0.0005510260348
0.0005425800656
0.0004410250664
2.635915903e+11
9.41867444e-05
0.000187392106
0.0002309486271
0.0001953145766
0.0001443665226
0.0001969419403
0.000317719489
0.0002337107411
0.0002730324712
0.0003886027992
0.0003055360277
0.0004056931297
0.0002976867554
0.0003802237086
0.0004178619427
0.0003555839567
0.0003535130851
0.0005231791625
0.0003075976925
0.0005088285734
0.0003886460734
0.0004187722412
0.0004784253987
0.0004431827084
0.0004503327011
0.0004730604723
0.000483514395
0.0005031029374
0.0004792977684
0.0004543877773
0.0005167233073
0.0005240054388
0.0003705290033
0.0004254489825
0.0006181315826
0.0004996126531
0.0004371596816
0.0005168439415
0.0004945486563
0.0004005383161
0.0003986960387
3.18554504e+11
0.0001242479891
8.678185932e-05
0.0001066729801
7.862802964e-05
0.0002333972096
0.0002167843994
0.0001930076338
0.0001783024273
0.0002242144871
0.0002897542354
0.0002648544389
0.000359994481
0.0002977816572
0.0003445602228
0.0003827523615
0.0003713761509
0.0002356646869
0.0004025746947
0.000280266118
0.00045217698
0.0003627198237
0.0003564208245
0.0004521695575
0.0004233952528
0.0005909185974
0.0004721769592
0.0003340859913
0.0004082221972
0.0004545056614
0.0004882840343
0.0005507890339
0.0005889468705
0.0004424718098
0.000459696159
0.0005599356031
0.0004600915294
0.0004901998817
0.0003162301408
0.0004811073071
0.0004915475025
0.000559262359
2.339628413e+11
2.869550411e-05
7.355646062e-05
0.000119291965
0.0002047760152
0.0001819120157
0.0001852822521
0.0001922924576
0.0002743661969
0.0004061884483
0.0002981551485
0.0002480051381
0.0003570542743
0.0002699869761
0.0003256702107
0.0003661115404
0.0003498912003
0.00050583039
0.0003400055147
0.0004687081802
0.0004949249082
0.0004907070179
0.0003819662606
0.0004740442294
0.0003736696745
0.0004376178691
0.0004304667101
0.0003401893602
0.0003561108612
0.0004390410561
0.0005658571096
0.000550467233
0.0005650876482
0.0004325703955
0.0004218805149
0.0003772685252
0.0003353436334
0.0004454090516
0.0005176304962
0.000346671648
0.0005867627568
0.0005661431713
0.000153078242
0.0001234803167
9.254195925e-05
6.794092692e-05
0.0001818404572
0.0001431342653
0.0002856013754
0.0001780953074
0.0002086333227
0.0002003666968
0.0003399585087
0.0002723417338
0.0003085029337
0.0003963518969
0.0004221189901
0.0004230175257
0.0003146576168
0.000319920509
0.0003184773762
0.0002647774434
0.0004719099697
0.0003444291939
0.0002884582151
0.0004975847863
0.0005018632082
0.0004271429364
0.0003656581166
0.0002845088105
0.0003843481872
0.0004413352508
0.000407539727
0.0004911724827
0.0005361789536
0.0004111533882
0.0005293256847
0.0005544280495
0.0004752958333
0.0005997869543
0.0003252568995
0.0005495787896
0.000392419929
0.0004649888468
2.837821666e+11
7.686598809e-05
0.0001517786003
0.0001079859832
0.0001033073706
0.0001248958105
0.0001958094267
0.0001951675004
0.000204727411
0.0001622779322
0.000277234056
0.0002577282473
0.0002575155156
0.0002382992471
0.0003345396837
0.0003663735859
0.000386363837
0.000263127138
0.0004425856192
0.0004784128866
0.0004708820536
0.0004077947563
0.0005520443912
0.0004332221645
0.000454742554
0.0004081289684
0.0005722484392
0.0004460717231
0.0003925262805
0.0005049742667
0.0003507501417
0.000562736584
0.0004665121838
0.0005413942148
0.000457336495
0.0003479370224
0.0003988152912
0.0004125308957
0.0003226883475
0.0004850009113
0.000603124919
0.000575911653
9.706923108e+10
1.031687293e+11
9.073213996e-05
0.0001447829052
0.0001301605169
0.0001681530437
0.0002251376539
0.0003582944796
0.0002072706371
0.0002180492898
0.0002100005003
0.0002604615009
0.000359133306
0.0005140463776
0.0004223065235
0.0003344875317
0.0005519858553
0.0003289164702
0.000681344957
0.0003944934402
0.000566059689
0.0005633755121
0.0003769430268
0.0003698312447
0.0004785149578
0.0006349923437
0.0005866226039
0.000597047341
0.0006446411869
0.0006224744035
0.0006695228278
0.0005940941815
0.0005909365649
0.000701474857
0.0006238585655
0.0007721454967
0.0006708022513
0.0006068675885
0.0007852383942
0.0006076595033
0.00079902132
0.0009026858853
8.770847899e+11
6.641218787e+11
0.0002149342739
0.0002896459771
0.0004865949687
0.0003130922208
0.0002716914164
0.0002764386243
0.0003482083313
0.0003496904425
0.0003045123375
0.0005604418424
0.0005502972137
0.0005091873881
0.0005472977676
0.00055029878
0.0005344249948
0.0004986840112
0.000561116583
0.0005067702261
0.0006997998604
0.0006575546431
0.0005608265607
0.0007474182713
0.0004994023821
0.0006657951558
0.0006237060951
0.000760397877
0.0007286943712
0.0007129004861
0.0008307212013
0.0006106131237
0.0007641058006
0.0006880392943
0.0008315481409
0.0008000113668
0.0009404371201
0.0009714456909
0.0008030305101
0.0008538726083
0.0008906169888
0.0008004741304
0.0005999139554
0.0001929532315
0.0003540819594
0.000257262554
0.00040640131
0.000822414001
0.0006747747281
0.0008781721837
0.000481695411
0.0006284294135
0.0005661324378
0.000846106992
0.0009515208123
0.00064134733
0.0005815218488
0.0009936990338
0.0008799061598
0.0009144597824
0.0005986246826
0.0008231040129
0.000740623031
0.0006942184711
0.0008403741791
0.0006703690733
0.0007705745141
0.0009516628041
0.0008001532949