/*--------------------------------*- C++ -*----------------------------------*\
| =========                 |                                                 |
| \\      /  F ield         | OpenFOAM: The Open Source CFD Toolbox           |
|  \\    /   O peration     | Version:  v1706                                 |
|   \\  /    A nd           | Web:      www.OpenFOAM.com                      |
|    \\/     M anipulation  |                                                 |
\*---------------------------------------------------------------------------*/
FoamFile
{
    version     2.0;
    format      ascii;
    class       volScalarField;
    location    "3.996";
    object      SOFP_O2;
}
// * * * * * * * * * * * * * * * * * * * * * * * * * * * * * * * * * * * * * //

dimensions      [0 0 0 0 0 0 0];


internalField   nonuniform List<scalar> 
50792
(
9620403980
8.134248006e-05
4.395053527e-05
1.873237853e-05
3.576822117e-05
3.025459536e-05
5.855935693e-05
3.627509157e-05
4.228581952e-05
2.871608191e-05
4.866562211e-05
7.109234937e-05
4.840394508e-05
3.931684107e-05
0.0001215826429
9.363884993e-05
7.157642982e-05
0.0001000812822
0.0001250621753
0.0001113081962
0.0001557610689
0.0001152983824
8.986986848e-05
0.0001121598909
0.0001310839748
0.0001096279711
0.0001367788519
9.432978773e-05
0.0001041667811
9.462145127e-05
0.0001390134644
0.0001013517622
0.0001270392544
0.0001810810244
9.700698405e-05
0.0001611939596
0.0001646692342
0.0001076585092
0.0001514855344
0.0002049111791
0.0001791070348
0.0001608358321
7.542191751e+10
4.876019472e+10
6.464829848e-06
4.856765479e-05
2.78370459e-05
0.0001001882229
3.486210616e-05
5.739075927e-05
0.0001050803343
5.582232028e-05
6.148443054e-05
4.878193333e-05
7.652084662e-05
7.197106223e-05
6.046974639e-05
6.410213331e-05
7.828927114e-05
6.399541536e-05
8.680135197e-05
6.981460151e-05
8.689767103e-05
7.400724753e-05
0.0001129655105
8.773093481e-05
7.240155399e-05
9.449578762e-05
4.768647898e-05
7.997667777e-05
8.758482845e-05
8.070442257e-05
7.051202725e-05
8.632663144e-05
0.000100971058
0.000110427547
8.451379469e-05
6.564511306e-05
0.000104313319
0.0001133654677
9.738561148e-05
0.0001041472661
0.0001073303349
0.0001316221462
3.376665885e-06
1.977970158e-05
3.369784432e-05
3.370526432e-05
3.586666046e-05
3.790720202e-05
8.20260963e-05
3.566595523e-05
7.55057508e-05
4.839106449e-05
3.680531976e-05
5.550940859e-05
5.104606222e-05
6.24667302e-05
7.616917363e-05
8.319365913e-05
8.043154681e-05
6.772159823e-05
5.593269596e-05
6.780087695e-05
8.536535142e-05
8.358522897e-05
8.351988657e-05
9.930690074e-05
0.0001051913302
0.0001596925002
8.953825012e-05
7.609657319e-05
8.742794165e-05
0.0001176107669
0.0001069138696
0.0001400182199
0.0001042344892
9.431369517e-05
8.933636301e-05
7.549699498e-05
6.639331209e-05
8.15401301e-05
0.000117063864
0.0001221350903
9.033632424e-05
0.0001136365907
1.45320784e+10
3.20951928e+10
2.186781353e-05
4.126699981e-05
4.089559744e-05
0.0001192491197
2.232929729e-05
5.882305596e-05
4.455494754e-05
2.41438788e-05
4.240815116e-05
6.443296361e-05
3.128627032e-05
6.013119577e-05
5.014048955e-05
7.431533955e-05
7.399327222e-05
6.036971647e-05
7.911295861e-05
0.0001082353214
8.014658857e-05
9.787039248e-05
8.684234917e-05
8.554048047e-05
8.555310294e-05
9.040099783e-05
7.779762138e-05
0.000101112416
8.78695555e-05
9.633400749e-05
0.0001080842112
0.0001221576885
0.0001095564018
7.167035201e-05
7.667900391e-05
7.715764345e-05
9.010591057e-05
9.835751794e-05
8.673020532e-05
9.391995369e-05
0.0001058952825
0.0001130583241
2.241937334e+10
3.415812688e-05
3.133025234e-05
3.626757499e-05
8.104711241e-05
6.635765374e-05
5.243377496e-05
3.401334942e-05
5.198566333e-05
6.046053745e-05
6.13073078e-05
6.638177441e-05
4.820867266e-05
6.476017649e-05
5.692717606e-05
6.864288531e-05
6.109537582e-05
6.749969893e-05
7.753304156e-05
5.609482964e-05
0.0001015142006
9.240873151e-05
9.074046782e-05
9.515389598e-05
9.81916734e-05
0.000123173147
0.0001023968528
8.267750716e-05
6.852337917e-05
9.243888023e-05
0.0001218072813
9.855778863e-05
9.136887292e-05
0.0001038989664
7.173426038e-05
0.0001103948775
8.394960196e-05
0.0001008227625
8.358431035e-05
7.823309485e-05
8.249761295e-05
0.0001463613804
7.138175633e-06
4.258530749e+10
7.041535279e+10
4.091700828e-05
2.385042991e-05
4.831403119e-05
3.374815299e-05
4.525284768e-05
4.340291157e-05
5.763856717e-05
5.013560006e-05
4.073359233e-05
3.602793998e-05
4.090848901e-05
5.81384833e-05
4.481349405e-05
5.860763559e-05
7.831867837e-05
4.572473245e-05
6.447558691e-05
5.722282932e-05
0.0001026836183
8.233593898e-05
7.403444623e-05
9.572165684e-05
7.339877052e-05
8.303408422e-05
8.691176751e-05
9.428636632e-05
9.618495851e-05
7.390795048e-05
8.16271658e-05
7.862565704e-05
7.954818517e-05
9.158150803e-05
8.803706373e-05
8.525026565e-05
9.023020721e-05
8.161760152e-05
7.236078248e-05
0.0001042999952
8.289706192e-05
1.189502432e+11
9.093101278e-06
1.148835595e-05
3.05759463e-05
1.447825974e-05
3.137590826e-05
2.160123501e-05
2.319656295e-05
3.814936802e-05
4.180300669e-05
5.120336002e-05
4.441820461e-05
4.66574023e-05
4.970148881e-05
6.328869587e-05
6.746504848e-05
7.537212433e-05
9.245250627e-05
0.0001007648055
8.420897179e-05
0.0001022973369
7.650334269e-05
6.513959372e-05
8.184338233e-05
7.879994821e-05
8.67790341e-05
8.089849087e-05
7.986889086e-05
8.528093967e-05
6.256145291e-05
4.76643879e-05
6.112491598e-05
7.340262239e-05
5.938682822e-05
0.0001028323121
9.223723416e-05
6.865810548e-05
0.0001082069116
0.0001014203831
9.422500989e-05
0.0001086497836
0.0001151539499
1.577652464e+10
3.262020637e+10
3.419202112e-05
4.472140437e-05
6.474261454e-05
3.654585295e-05
3.920046402e-05
5.846467113e-05
6.89939478e-05
6.921463878e-05
5.257780999e-05
0.0001525460615
8.377335801e-05
0.0001186395534
9.341588145e-05
8.63941082e-05
9.695734393e-05
9.363698586e-05
7.734162769e-05
8.769923516e-05
0.0001057312666
0.0001023031913
0.0001297172311
9.20028789e-05
9.927859779e-05
0.0001440197009
8.475183576e-05
6.774861297e-05
6.381214761e-05
6.91331265e-05
0.0001284543155
8.659151858e-05
9.830409847e-05
7.930488302e-05
7.1479976e-05
9.618575815e-05
8.371268904e-05
8.856953647e-05
6.846923885e-05
9.716175079e-05
9.108890149e-05
8.14703274e-05
1.688898208e+10
6.217803024e+10
1.902670439e-05
2.744781771e-05
3.570670712e-05
5.349622897e-05
3.587931219e-05
4.046388857e-05
9.483059224e-05
5.848016752e-05
8.151467493e-05
3.882006861e-05
0.0001799214059
8.296271022e-05
7.339132207e-05
8.833026995e-05
0.0001189801418
0.000202068516
9.105878679e-05
8.694666954e-05
9.912998329e-05
8.860574375e-05
6.911236416e-05
8.574786046e-05
7.323464568e-05
9.168136497e-05
9.177621254e-05
0.0001159163125
8.372296935e-05
0.0001216241292
0.0002128254238
9.609755199e-05
9.843241007e-05
0.0001062230557
0.00011151318
0.0001504576166
8.689644785e-05
0.0001341585787
7.197839984e-05
6.788908972e-05
8.841108125e-05
6.165376733e-05
1.135977387e+10
4.580173419e+10
1.225548105e-05
6.235388276e-05
4.152256395e-05
6.014257179e-05
2.965857757e-05
4.40360894e-05
8.101474809e-05
4.412956448e-05
5.636096722e-05
6.277950566e-05
5.589505516e-05
5.090408812e-05
4.640699955e-05
7.361168435e-05
4.223680532e-05
0.0001039619108
6.009391636e-05
5.330859078e-05
7.931834482e-05
4.892159855e-05
4.720506934e-05
5.25789105e-05
9.689509264e-05
8.334724314e-05
8.085571737e-05
8.757812309e-05
9.779158744e-05
0.0001289363792
6.574833152e-05
7.018152448e-05
7.629828243e-05
0.0001269943376
7.980138696e-05
9.293945286e-05
6.750793921e-05
6.243279838e-05
8.250051414e-05
6.499500761e-05
8.957795857e-05
9.400833223e-05
1.417540872e+10
0
1.634659475e-05
7.606528945e-06
2.728121745e-05
3.833859485e-05
3.339018714e-05
2.887485981e-05
5.933093365e-05
8.087384046e-05
4.117515587e-05
8.846763015e-05
6.665533019e-05
6.41549026e-05
8.239925996e-05
5.346671433e-05
7.788418048e-05
7.688978017e-05
6.679545417e-05
5.752397231e-05
9.070915952e-05
0.0001073076012
9.581685728e-05
6.864275918e-05
7.95958837e-05
8.974593926e-05
7.659165178e-05
8.510712161e-05
9.136436896e-05
8.678030479e-05
6.797286773e-05
6.387934467e-05
7.646286314e-05
6.55844584e-05
8.320824661e-05
7.354171769e-05
6.805023698e-05
7.971901676e-05
8.369427633e-05
8.061714558e-05
7.242796918e-05
6.906533496e-05
1.075420394e+10
1.570306681e-05
5.951516921e-06
4.186040975e-05
5.335816974e-05
7.010502006e-05
3.214103525e-05
4.866902181e-05
6.990671358e-05
0.0001198525231
0.0001362503229
7.071397122e-05
8.237181829e-05
0.000114355254
4.991370137e-05
0.0001177096799
0.0001170051911
8.274811696e-05
8.816641819e-05
0.0001098719971
9.091285996e-05
8.033259866e-05
0.0001045771782
8.206528901e-05
9.977023422e-05
0.0001013859139
9.009386579e-05
0.0001246360756
8.487491423e-05
9.196253706e-05
8.885624634e-05
8.254400093e-05
0.0001140222266
9.891944249e-05
6.860588018e-05
0.0001398457574
0.0001429956527
9.755015535e-05
7.221587641e-05
0.0001091684632
0.0001274076941
0.0001100030533
3.123829506e-05
7.759875601e-06
1.185255381e-05
4.008741507e-05
4.989296764e-05
2.914526827e-05
7.305858107e-05
7.375082944e-05
3.181776478e-05
4.279438783e-05
5.46258834e-05
6.10261484e-05
8.59344429e-05
6.764219912e-05
6.257951672e-05
9.141099019e-05
7.59604663e-05
6.948885144e-05
0.0001008085896
0.0001285495763
6.873432223e-05
0.0001080654239
0.0001283771225
7.428553591e-05
9.460280338e-05
0.0001060198819
0.0001286202758
0.000108452485
9.962305513e-05
0.0001071474989
0.000154580341
0.0001316645472
0.0001982143099
0.0001885303741
0.0001508079156
0.0001605019162
0.0001366930511
8.707800871e-05
9.32708422e-05
0.0001010649481
7.541149796e-05
0.0001490036528
1.965027826e+11
4.245837198e-05
5.394890512e-05
5.190341378e-05
9.616356986e-05
7.532255519e-05
5.185642217e-05
5.050971862e-05
7.336952057e-05
8.478991154e-05
5.451599504e-05
6.041581651e-05
9.118425735e-05
4.521908749e-05
6.350097335e-05
9.127326011e-05
9.060011327e-05
7.269041707e-05
0.0001046810392
9.389246661e-05
0.0001063155321
7.33924167e-05
0.0001059267436
9.68192038e-05
0.0001159915888
0.0001199940286
8.240271e-05
9.229076568e-05
0.0001298754051
9.004080845e-05
0.0001247613607
0.0001369487076
0.0001230127436
9.014421432e-05
0.0001038242549
0.0001363959158
8.790697994e-05
0.0001460722524
0.0001198346073
0.0001005590534
8.743112263e-05
6.612353672e-05
2.150519505e+11
6.572119413e-05
6.994826143e-05
5.630018916e-05
9.33815623e-05
7.188877037e-05
7.624098703e-05
5.908227563e-05
0.0001119314575
4.490505096e-05
5.57707695e-05
4.607799451e-05
9.039992625e-05
8.650437904e-05
5.559494109e-05
3.716166711e-05
6.556618391e-05
7.430538811e-05
6.638793773e-05
7.27108806e-05
7.650370726e-05
6.881099602e-05
9.38339963e-05
0.0001595678083
9.422209503e-05
9.968692608e-05
8.841690055e-05
8.246685426e-05
7.880321176e-05
6.930879532e-05
8.230031608e-05
8.147383468e-05
0.0001096364814
0.0001262894929
0.000174916967
8.086519095e-05
0.0001015040152
9.54324411e-05
0.0001098346473
9.494581555e-05
0.0001128268858
0.0001047549865
3.503683153e+10
5.073075175e+10
7.153609146e+10
8.976923011e-05
2.168119514e-05
1.490362241e-05
2.577835587e-05
3.863759231e-05
7.718463095e-05
4.061211711e-05
6.838087472e-05
8.817308984e-05
0.0001048604928
5.401090775e-05
8.304928601e-05
9.904308578e-05
6.740168155e-05
6.36501228e-05
8.487077431e-05
8.359398988e-05
9.972771709e-05
9.180188306e-05
9.635670488e-05
9.401533201e-05
8.511541247e-05
9.062276023e-05
8.3237386e-05
8.456826589e-05
8.144647672e-05
8.79970588e-05
6.376092116e-05
6.288244429e-05
7.471364521e-05
7.421440678e-05
7.002296731e-05
0.0001034781707
9.782371978e-05
7.883768098e-05
9.000196683e-05
8.623863085e-05
0.000118426703
7.205364674e-05
3.069868455e+10
3.380649575e+10
1.880865659e-05
3.330230481e-05
5.395967381e-05
7.280962449e-05
4.466841715e-05
9.680614138e-05
5.05297885e-05
7.630721773e-05
9.911603796e-05
6.195458188e-05
7.632624714e-05
6.629431897e-05
0.0001037436593
8.361282067e-05
7.676699208e-05
8.072136248e-05
0.0001073819681
8.251757288e-05
8.462461615e-05
9.313267722e-05
8.088519223e-05
0.0001074365786
0.0001212402878
8.874856179e-05
0.0001216521131
0.0001160447061
0.0001149735946
8.892323754e-05
8.366071073e-05
0.00013362335
8.355916061e-05
0.0001034369577
0.0001355213143
0.0001051183707
9.58484549e-05
0.0001197677621
0.0001242302765
0.000125713893
9.979184486e-05
9.490022179e-05
7.139726793e+10
1.203419894e-05
2.535214984e-05
4.458806879e-05
5.353167606e-05
4.981042958e-05
4.238417664e-05
5.204991066e-05
4.153122386e-05
6.368516735e-05
4.703566102e-05
6.580433901e-05
5.540784574e-05
5.510162537e-05
5.662877208e-05
9.110567766e-05
6.699617399e-05
9.635738503e-05
7.623089527e-05
6.34857881e-05
7.071053228e-05
6.769601694e-05
5.962012266e-05
6.99311307e-05
0.000122724456
7.875551543e-05
0.0001065616149
6.746670055e-05
0.0001053455989
9.285991374e-05
7.002509866e-05
9.997694234e-05
9.315733707e-05
9.350572035e-05
9.809224729e-05
0.0001034415956
0.0001075256933
7.063381258e-05
6.861880586e-05
0.000139306723
8.461102585e-05
0.0001076609566
3.03729756e+10
7.580333838e+10
2.437775858e-05
4.124617718e-05
4.835528983e-05
3.393469826e-05
3.527627408e-05
5.279040308e-05
5.041778125e-05
6.196229304e-05
6.30229566e-05
5.059859315e-05
8.744555808e-05
7.990354149e-05
6.251340533e-05
5.710859047e-05
8.528675062e-05
0.0001021584888
9.513578616e-05
6.370275298e-05
7.717437758e-05
0.0001054589316
8.211900377e-05
0.000122547175
9.843092419e-05
9.342633822e-05
9.364060819e-05
8.865415412e-05
9.764646074e-05
9.648118123e-05
0.0001050444704
9.823801206e-05
8.003113637e-05
7.102535562e-05
8.590595272e-05
6.396686173e-05
8.322544566e-05
7.408157468e-05
8.617735547e-05
8.015076921e-05
7.176290084e-05
0.0001003250388
3353158374
4.220175883e+10
4.912491967e-05
4.793051825e-05
2.473507761e-05
3.930213175e-05
4.986574866e-05
9.770104638e-05
0.000105647865
5.633137013e-05
9.091690328e-05
7.795438061e-05
6.152212335e-05
5.965890618e-05
7.191590589e-05
7.854513413e-05
0.0001029012218
6.211444609e-05
7.202550654e-05
9.617239428e-05
7.431954615e-05
9.216437642e-05
0.0001286512717
0.0001115686665
9.269191789e-05
6.824552607e-05
6.593000364e-05
0.0001040939741
6.723871004e-05
5.978935268e-05
7.931291654e-05
5.98790405e-05
7.073829127e-05
7.735740986e-05
8.574984042e-05
0.0001110790743
9.028540631e-05
8.35012732e-05
9.201630451e-05
9.858240536e-05
7.615508872e-05
7.930744052e-05
3.005636805e-05
2.39290992e-05
1.48081107e-05
3.853487456e-05
4.149996307e-05
2.882254831e-05
4.467027642e-05
3.051934886e-05
4.828263724e-05
0.000131321368
0.0001343531313
6.5642797e-05
8.185611825e-05
8.693265728e-05
8.662383379e-05
8.393677024e-05
0.0001020167339
0.0001052738814
0.0001050478682
0.0001047342112
0.0001005796814
0.0001122306044
0.0001134577673
7.183645381e-05
9.959699587e-05
8.116713081e-05
7.796910241e-05
8.472397789e-05
0.0001066575489
9.843096701e-05
0.0001134999831
0.0001041035765
6.439538668e-05
6.265647221e-05
5.540445974e-05
9.19450601e-05
8.671194137e-05
9.899032679e-05
0.0001067762351
9.699653042e-05
8.716073884e-05
5.351372509e-05
1.531289695e+10
2.620750987e-05
2.961117637e-05
7.793097565e-06
1.687161558e-05
2.523565705e-05
4.08319847e-05
4.609892392e-05
3.015696821e-05
4.163707313e-05
5.921622072e-05
0.0001094856219
7.352434283e-05
0.0001022370702
5.012640332e-05
7.597590347e-05
6.888516916e-05
7.956869956e-05
7.310320203e-05
6.899930112e-05
5.216276824e-05
6.822342306e-05
6.530524898e-05
0.0001127537111
6.835667583e-05
0.0001014400758
9.058894765e-05
9.245837662e-05
7.844390982e-05
8.582069071e-05
9.311760037e-05
8.923909402e-05
0.0001083083357
0.0001446842734
0.0001146883223
0.0001034471939
8.248234632e-05
6.550884511e-05
4.695542517e-05
5.69471933e-05
6.348301766e-05
6.577537601e-05
0
2.004866535e-06
2.075926677e-05
1.844962877e-05
3.391807777e-05
2.23942435e-05
1.461035191e-05
4.798804133e-05
5.465064018e-05
3.415497464e-05
7.538374326e-05
6.959343655e-05
6.345098314e-05
5.536995647e-05
5.76669603e-05
6.140591791e-05
0.0001019175774
5.257644703e-05
6.127918722e-05
9.468002771e-05
8.47880148e-05
8.789699192e-05
0.0001172734863
9.275062365e-05
0.0001165180511
9.353434493e-05
8.735497974e-05
8.959898716e-05
8.213194071e-05
6.820767313e-05
8.682124132e-05
0.0001197205046
0.0001049646598
0.0001293320035
0.0001241515341
9.603262083e-05
0.0001153665771
9.390318856e-05
9.539351529e-05
7.696409281e-05
7.473653507e-05
8.105771388e-05
3.184388417e-05
4.025442665e-05
5.792404532e-05
3.010204344e-05
2.321785605e-05
7.931335192e-05
8.142743495e-05
5.856625681e-05
3.302073203e-05
3.178887014e-05
6.412789995e-05
5.878024013e-05
9.066475161e-05
6.659919222e-05
6.58528551e-05
9.948859301e-05
8.659703856e-05
0.0001204675264
7.072211158e-05
7.019354981e-05
7.535094716e-05
6.168519542e-05
8.4196796e-05
9.885783355e-05
6.789706681e-05
8.788616258e-05
7.607053025e-05
7.693336602e-05
7.170622628e-05
8.016061545e-05
9.887176402e-05
0.0001001128227
0.0001089467849
0.0001456129565
8.594396548e-05
8.196760065e-05
7.804666901e-05
8.16475669e-05
0.0001108426991
7.693380713e-05
7.563944417e-05
7.207410888e-05
3.212311751e+11
3.175833593e+10
3.618935985e+10
2.132890237e-05
5.438541205e-05
5.155463455e-05
5.121587704e-05
6.210525554e-05
4.776860738e-05
3.734696286e-05
4.945632048e-05
4.307213897e-05
5.298510169e-05
7.825478972e-05
7.700134584e-05
7.872080122e-05
8.068814277e-05
7.909661108e-05
6.764813498e-05
7.167501977e-05
9.296652489e-05
9.924733887e-05
7.862929835e-05
7.869862715e-05
8.132046871e-05
8.759513025e-05
0.0001077716588
9.586972643e-05
7.093982849e-05
7.907672933e-05
9.666736922e-05
5.454108106e-05
5.663384974e-05
0.0001174467439
0.0001154141248
4.061655741e-05
7.690915304e-05
6.176706065e-05
8.483400058e-05
7.577194055e-05
7.424338689e-05
5.923135259e-05
3.545829772e+11
2.562848013e+10
1.9701165e-05
2.657122488e-05
2.904895404e-05
4.248787306e-05
2.817973078e-05
7.550857514e-05
2.916068112e-05
3.360789377e-05
0.0001049751935
4.237474983e-05
6.175655687e-05
7.130546001e-05
6.957077626e-05
6.145482422e-05
9.07594342e-05
7.917741465e-05
6.335341252e-05
0.0001187568435
8.951618177e-05
4.507728854e-05
8.40784228e-05
7.655907877e-05
6.973350257e-05
0.000100238655
7.210561522e-05
9.281542568e-05
8.499683603e-05
6.845817496e-05
8.131847344e-05
8.581723715e-05
5.901025481e-05
6.325472703e-05
9.549138283e-05
8.825534079e-05
8.410577587e-05
8.403643665e-05
5.944885394e-05
6.862244349e-05
9.22990968e-05
6.337765477e-05
7.181064066e+10
5.320374322e+10
4.118377095e-05
2.868752342e-05
5.719206599e-05
3.421294383e-05
6.740606493e-05
0.0001191180633
5.355366242e-05
6.681668139e-05
6.960448323e-05
7.964849354e-05
7.710860855e-05
7.451393432e-05
5.654730145e-05
7.306155892e-05
6.559030668e-05
6.706269413e-05
6.342855155e-05
7.239077459e-05
6.289195988e-05
7.884125922e-05
6.103093378e-05
7.113393345e-05
6.954987457e-05
4.625845846e-05
5.585958077e-05
7.959407957e-05
8.359736419e-05
0.0001012387242
0.0001035633646
8.959839032e-05
8.84989419e-05
0.0001006950067
8.854140544e-05
0.0001001427303
6.763451145e-05
0.0001028173359
4.901097259e-05
6.887155181e-05
5.85259989e-05
8.12018131e-05
5.150726184e+10
1.419384764e+10
3.308728514e-05
3.409783731e-05
5.742333352e-05
7.515410219e-05
6.040415383e-05
0.0001076599627
0.0001115103442
0.0001106749362
0.0001147137197
8.15737929e-05
6.033264672e-05
9.412218261e-05
0.0001151956102
8.25270182e-05
8.859171287e-05
8.179648255e-05
8.891918057e-05
7.996035271e-05
8.974474222e-05
9.913936935e-05
7.416462492e-05
9.357221747e-05
0.000120800827
0.0001046594788
0.0001218572509
0.0001413899768
0.0001043031055
9.969682895e-05
7.281831705e-05
9.210227579e-05
9.948518743e-05
0.0001205175432
9.985297643e-05
0.0001305321427
8.000353657e-05
7.718277827e-05
9.798334488e-05
8.399876751e-05
8.660806774e-05
6.329508726e-05
2.074927233e+11
2.612358552e+10
4.89953413e-05
5.160274739e-05
4.494018012e-05
7.619120337e-05
6.003753496e-05
3.97519687e-05
2.912702177e-05
5.350084826e-05
6.75848093e-05
6.481945728e-05
7.380375036e-05
6.570252915e-05
8.284068912e-05
7.521976338e-05
6.802601763e-05
6.410928397e-05
6.232764102e-05
6.535393505e-05
6.368738512e-05
5.088977709e-05
6.379288837e-05
9.503193695e-05
8.090034722e-05
9.150058438e-05
0.0001250133436
0.0001014532942
8.524811345e-05
6.038556394e-05
8.719858912e-05
0.0001021850908
7.784884319e-05
4.577055047e-05
7.875080385e-05
8.477598377e-05
0.0001084600116
8.07469968e-05
0.0001065246273
0.0001217275428
0.0001087080278
0.000137261343
2.5155356e-05
2.329956667e-05
2.806648664e-05
2.401583951e-05
7.80355957e-05
4.351579406e-05
4.659004618e-05
3.77530218e-05
3.558279527e-05
5.224403314e-05
0.0001302875024
4.647452911e-05
5.345400816e-05
5.576166325e-05
6.65782557e-05
7.222403391e-05
8.118959272e-05
7.491952561e-05
7.948908874e-05
6.968407435e-05
7.539046563e-05
6.570193351e-05
6.199968386e-05
8.155143165e-05
8.986083341e-05
0.0001476387329
6.835491996e-05
5.208947278e-05
4.978772776e-05
7.15155737e-05
9.087775564e-05
7.846375317e-05
8.356338502e-05
7.520288635e-05
8.274923695e-05
0.0001118143221
9.187083866e-05
9.02179647e-05
7.693578125e-05
9.947105383e-05
6.160064087e-05
4.735228731e-05
1.407961882e+11
7.004289858e-06
2.187865372e-05
4.729723134e-05
4.856620816e-05
2.486474838e-05
5.194666436e-05
3.605286136e-05
5.136963792e-05
4.87725794e-05
5.245074767e-05
7.224486984e-05
7.268423107e-05
7.651216716e-05
6.841821424e-05
8.460070604e-05
7.566958387e-05
9.225640215e-05
8.550588864e-05
9.234236632e-05
7.419704866e-05
7.852495383e-05
8.159104234e-05
9.652797234e-05
0.0001406632832
8.572301202e-05
9.405691576e-05
7.804086655e-05
8.19741444e-05
0.0001095632001
0.000119116188
6.441288782e-05
9.950423695e-05
8.985552805e-05
0.0001034494792
0.0001090701221
7.4505321e-05
8.164360163e-05
0.0001256923584
0.0001214383449
0.0001001821508
9.680087665e-05
1.492185519e+11
3.766592724e-05
1.117087816e-05
2.724602208e-05
5.450713189e-05
3.322860452e-05
2.900535053e-05
5.450054231e-05
2.243527421e-05
2.715930461e-05
5.468015545e-05
4.598334624e-05
6.48957612e-05
6.471928341e-05
5.26962678e-05
5.85476455e-05
5.174664806e-05
6.314813127e-05
5.791721977e-05
6.900696406e-05
7.620806745e-05
7.297932142e-05
8.238851064e-05
9.234641942e-05
6.970851287e-05
6.619479255e-05
6.86316225e-05
0.0001035240508
6.610107988e-05
7.122072877e-05
7.945866657e-05
8.508526968e-05
0.000101192268
8.954870228e-05
9.777822516e-05
6.003566535e-05
6.877024794e-05
9.669757451e-05
7.050405563e-05
0.0001028747231
8.780534939e-05
5.62401155e-05
1.051079286e-05
3.776498203e-05
2.583800154e-05
4.238737192e-05
3.260061263e-05
2.063189003e-05
5.811059704e-05
4.878038555e-05
2.407707979e-05
4.657900976e-05
5.923591214e-05
5.102816048e-05
4.918206981e-05
6.715750124e-05
5.672354787e-05
7.170232678e-05
8.469853139e-05
5.639701414e-05
8.119307695e-05
8.780384578e-05
0.0001110448798
9.450156503e-05
0.0001216505545
8.062499307e-05
8.631943825e-05
0.0001202545021
0.0001508083258
8.174878506e-05
8.878575814e-05
7.727678472e-05
6.7951505e-05
9.640752837e-05
9.674126281e-05
7.858038129e-05
9.933980373e-05
0.0001021973843
0.0001437003618
0.0001264641754
9.661575494e-05
9.236591354e-05
0.0001070048442
0.0001083170605
8.081735055e+10
8.852174649e-06
4.77544638e+10
3.708067869e-05
1.563666041e-05
3.004544875e-05
3.02845459e-05
4.130236002e-05
5.734432639e-05
3.808074058e-05
5.384102077e-05
5.270963107e-05
5.3983454e-05
6.2951542e-05
6.292108223e-05
6.980481846e-05
7.362391794e-05
9.593289995e-05
9.137286986e-05
5.337965614e-05
7.809299263e-05
9.473120971e-05
8.395446815e-05
8.421541541e-05
9.668380176e-05
9.218746566e-05
0.0001044866594
8.649075395e-05
0.000124593883
8.725718915e-05
7.031849446e-05
7.671119075e-05
8.569967339e-05
0.0001082122386
9.547274446e-05
9.815037227e-05
0.0001009804889
0.0001458509064
0.0001172691902
9.435302465e-05
7.340348355e-05
0.0001064958793
1.272677771e+10
1.238696691e-05
2.663383031e-05
4.252979728e-05
1.784665646e-05
8.330652004e-05
5.549785609e-05
4.488090949e-05
3.577035873e-05
4.178326621e-05
4.549923054e-05
5.543699844e-05
4.769788588e-05
2.713747484e-05
6.670551694e-05
6.116722373e-05
5.888332144e-05
6.96305847e-05
4.172258658e-05
8.394718698e-05
8.23535833e-05
0.0001057292084
7.813210226e-05
6.193830747e-05
6.481736476e-05
8.39765273e-05
8.836835794e-05
7.874453857e-05
6.72738411e-05
7.416482975e-05
5.865461503e-05
5.687513042e-05
7.275668378e-05
7.094082278e-05
5.047240072e-05
9.364040187e-05
9.05978567e-05
0.0001422215103
7.465683516e-05
7.800265562e-05
8.417917928e-05
6.84792228e-05
1.773109339e+10
1.782367265e-05
1.697330848e+10
1.409677259e-05
4.361295795e-05
5.77178734e-05
5.304664242e-05
4.46892834e-05
4.16322642e-05
5.871722915e-05
4.604487992e-05
8.571744759e-05
6.663305512e-05
7.623326029e-05
0.0001039824234
8.465159515e-05
9.167700933e-05
6.772648684e-05
0.0001171743323
9.14013354e-05
5.624591583e-05
7.153983779e-05
6.444301556e-05
5.857559107e-05
6.423106623e-05
7.95808229e-05
6.791050807e-05
7.245620523e-05
7.851163023e-05
0.0001190331147
7.089204323e-05
7.256908359e-05
8.468087656e-05
0.0001227201408
8.613791393e-05
6.468151327e-05
6.779650101e-05
8.709597612e-05
0.0001235181863
0.0001177494309
0.0001227831058
8.913337831e-05
7.435198551e+10
1.566152105e-05
5.008514816e-05
6.873529428e-05
9.622821416e-05
5.814198821e-05
5.467857576e-05
9.572092093e-05
5.524553942e-05
6.734882432e-05
8.073365554e-05
7.515453263e-05
8.069676689e-05
7.205014274e-05
9.04727948e-05
0.0001060189958
7.649747407e-05
6.918383805e-05
0.0001108578508
5.493390484e-05
0.0001185705671
8.908190387e-05
0.0001269064744
9.795585493e-05
0.0001027558771
0.0001017680849
0.0001045648709
0.0001025956929
0.0001138344322
0.0001030400103
0.0001017053032
0.0001165651505
0.0001061991039
9.187072679e-05
8.921214443e-05
0.0001449470219
0.0001190363799
9.167286752e-05
0.0001120342333
8.614460934e-05
7.078406806e-05
8.42133882e-05
1.726244359e+11
3.205527307e-05
1.786461944e-05
4.252749701e-05
2.801063666e-05
4.319467661e-05
7.049203711e-05
4.524123601e-05
2.931562266e-05
4.109418329e-05
5.828295194e-05
5.259274973e-05
7.275690424e-05
4.062429456e-05
4.874520817e-05
6.121709163e-05
6.089047027e-05
5.692663346e-05
9.226701055e-05
5.163729502e-05
9.47705197e-05
9.745913708e-05
7.70336549e-05
0.0001018858752
9.359762658e-05
0.0001373406198
0.0001265279347
6.479363374e-05
0.0001038899601
0.0001000803347
0.0001149112051
0.0001225766095
0.0001264494047
0.0001141589197
0.0001327902883
0.0001239663476
8.110396968e-05
9.134598575e-05
6.561349073e-05
8.482830415e-05
8.806636413e-05
0.0001094188773
1.156961964e+10
0
2.301179997e-05
2.607384541e-05
4.960918971e-05
5.951938602e-05
3.381623348e-05
6.466722816e-05
4.121654227e-05
5.434454526e-05
4.016467397e-05
3.946022672e-05
6.500285917e-05
5.879734345e-05
7.09122656e-05
7.956818876e-05
7.75491696e-05
0.0001077899767
6.820776648e-05
0.0001182062553
9.127844554e-05
0.0001238112478
0.0001627956338
0.0001134216771
8.395825151e-05
0.0001003519495
0.0001225185924
8.098108499e-05
8.261580166e-05
0.0001017585815
0.000131977105
0.0001544183149
0.0001552458838
9.02386509e-05
9.093927728e-05
9.12833599e-05
8.078804871e-05
0.000102006873
0.0001112856272
6.909358172e-05
0.0001239377141
0.0001255162755
4.664162959e-06
3.159775212e-05
2.690138346e-05
1.991982079e-05
3.776958188e-05
5.220149924e-05
6.412932806e-05
4.322246989e-05
5.727324855e-05
4.328103167e-05
0.0001063119821
4.158281101e-05
7.103128848e-05
7.987039848e-05
9.751807758e-05
8.005657938e-05
6.167531363e-05
5.650746711e-05
5.431043029e-05
4.053210793e-05
9.378673996e-05
7.19520848e-05
6.567929575e-05
0.0001156252126
0.0001132615607
7.515131792e-05
6.943977563e-05
5.349684607e-05
7.161289972e-05
8.496690238e-05
7.8470361e-05
9.902241069e-05
0.0001033026451
0.0001011769565
0.0001365027266
0.0001446250766
0.0001116322719
0.0001587247793
8.001436679e-05
0.0001226844581
9.008971491e-05
8.996388226e-05
2.851858145e+10
4.719065124e-05
8.328090775e-05
5.538667431e-05
5.034699614e-05
2.872607369e-05
5.105120792e-05
6.742520641e-05
5.883729797e-05
5.62059633e-05
7.311635094e-05
5.914397217e-05
4.892761262e-05
4.465220392e-05
6.896425052e-05
5.757614709e-05
5.847435336e-05
3.944135868e-05
5.639804304e-05
5.9711806e-05
6.458010435e-05
5.232361673e-05
7.870335291e-05
5.841363557e-05
5.872951055e-05
6.812662745e-05
7.4787106e-05
5.560965609e-05
5.61646092e-05
7.921394323e-05
5.064511611e-05
8.282543271e-05
9.506445756e-05
0.0001103331552
7.69798709e-05
5.866497554e-05
8.76218426e-05
7.970611704e-05
4.825876813e-05
8.950640887e-05
9.588561336e-05
0.0001612946356
0
3.933179342e+10
2.328055875e-05
3.930601228e-05
1.533107935e-05
1.524428714e-05
3.29024795e-05
5.195762359e-05
7.192532378e-05
3.16894017e-05
4.164407785e-05
4.355247508e-05
6.102264886e-05
7.812003267e-05
0.0001137575065
5.521397334e-05
9.522793275e-05
8.799382056e-05
0.0001075873232
6.655516593e-05
7.945165066e-05
6.368659007e-05
6.148741636e-05
5.623363781e-05
8.291472759e-05
0.0001343704348
0.0001311899553
0.0001955671098
0.000155760578
0.0001088486728
0.0002149792109
0.0001320047091
0.0001269717614
0.0001810043939
0.0001136950604
0.000132630225
9.09139864e-05
0.0001303516108
0.0001320006966
9.704328261e-05
0.0001402754347
0.0001654446062
3.06651449e+11
3.850730047e+11
8.612762114e-05
9.091966007e-05
0.0001440222454
4.173394232e-05
2.100734221e-05
3.916548851e-05
7.389759288e-05
0.0001200895702
5.172363197e-05
8.915526202e-05
0.0001631664426
6.259673543e-05
8.776083478e-05
8.594076623e-05
0.0001029425525
7.569904961e-05
9.933952826e-05
0.0001090378738
0.0001184632437
0.0001055531237
0.0001043595597
0.0001721769724
0.0001096864591
0.0001708816473
0.0001789810539
0.00013757033
0.0001437082098
0.00017688766
0.0001867708617
0.000123803963
0.000143333084
0.0001364814417
0.0001671695329
0.0001648023343
0.0001786459586
0.0001910444293
0.0001692597186
0.0001695187246
0.0001855124438
0.000173085412
8.394998346e-05
3.117586131e-05
0.0001317481897
5.095816984e-05
0.0001272776558
0.0002439472491
0.0001717260193
0.0002137222139
0.0001351313861
0.0002793890607
8.855306341e-05
0.0001304346863
0.000199848391
9.370700864e-05
7.664108953e-05
0.0001927080046
0.0001850479585
0.0001255441383
0.0001291208829
0.0001875886422
0.0001338088663
0.0001420965215
0.0001354913236
0.0001388070721
0.0001550917109
0.0002444498574
0.0001485865308
0.0002577073398
0.0001304668204
0.000122212498