/*--------------------------------*- C++ -*----------------------------------*\
| =========                 |                                                 |
| \\      /  F ield         | OpenFOAM: The Open Source CFD Toolbox           |
|  \\    /   O peration     | Version:  v1706                                 |
|   \\  /    A nd           | Web:      www.OpenFOAM.com                      |
|    \\/     M anipulation  |                                                 |
\*---------------------------------------------------------------------------*/
FoamFile
{
    version     2.0;
    format      ascii;
    class       volScalarField;
    location    "3.996";
    object      SOFP_N2;
}
// * * * * * * * * * * * * * * * * * * * * * * * * * * * * * * * * * * * * * //

dimensions      [0 0 0 0 0 0 0];


internalField   nonuniform List<scalar> 
50792
(
8.130597264e+10
8.371595258e-05
5.368536063e-05
8.577820855e-05
0.0001808291523
0.0001791968161
0.0002076946215
0.0001644376028
0.0002125427275
0.000123772795
0.0001998928918
0.0003406079841
0.000182896266
0.0001613538894
0.0003695766913
0.0003575327331
0.0002937480214
0.000416176508
0.0003832076588
0.0002976873461
0.0003755426006
0.0004359643315
0.0003937651529
0.0004860859457
0.0005005826823
0.0004421522365
0.0004602652404
0.0003845115568
0.0004301994066
0.0003913171613
0.0005436285218
0.000491831246
0.0005497043765
0.00066121093
0.0004003670101
0.0005170837802
0.0005136456282
0.0004149095488
0.0005162382373
0.0006874835767
0.0006237834003
0.0005330678866
6.819484881e+10
1.362984082e+11
2.291811856e-05
0.000100755847
7.005480556e-05
0.0001945627555
0.0001019953382
0.0001200749784
0.0001999312372
0.0001560960297
0.0001708470365
0.0001559817576
0.0002487826163
0.0002728487714
0.0002396443199
0.0002525516098
0.0002233157042
0.0002355601283
0.0002575877466
0.0002341057749
0.0002911649751
0.0002422618422
0.0003850289856
0.0004051328377
0.0003805897132
0.000377264343
0.0002487017483
0.0003269912946
0.0004025329482
0.0003289168869
0.000343129801
0.0003020185827
0.0004198674436
0.0004564733744
0.0003417696278
0.0002869244612
0.0004702697269
0.0003958067587
0.0003706571614
0.0004485542714
0.0004648029719
0.0004263628145
3.577178959e-05
0.0001001573662
7.871395223e-05
0.000101587995
0.0001267363673
0.0001361696244
0.0002067019723
0.0002610935779
0.0002206963834
0.0002397405768
0.0002124301856
0.0003453019307
0.0002780893102
0.0002800024311
0.0003150777065
0.0003352380775
0.0003397206234
0.0002937836831
0.0003061444863
0.00031983488
0.0003408232356
0.0003330399561
0.0003859031017
0.0003966088164
0.0003474511984
0.00041086609
0.0002863465548
0.0002614275698
0.0003193150099
0.0003892073113
0.0003512358608
0.000376800746
0.0003903391058
0.000394427453
0.0003439507957
0.0003651914695
0.0003069105401
0.0003735771432
0.000531633514
0.0004966144818
0.0003157475627
0.0004585171125
5.954334372e+10
1.023121465e+11
5.826022864e-05
0.0001092851493
0.0001120158976
0.0003265392838
4.763022822e-05
0.0001368442982
0.000188583716
0.0001259654164
0.000224241801
0.0002712673774
0.0002611220737
0.0002958634614
0.0002658949044
0.0002683440915
0.0002583706388
0.0002966368139
0.0002871874781
0.0003991193745
0.0003272600605
0.000363028692
0.0002995641951
0.0004233304092
0.0004368156152
0.0004088350631
0.0003472136203
0.0003558262918
0.0003809035719
0.0003948489473
0.0003373160143
0.0004194315134
0.0003598201224
0.0003496807683
0.0003913507433
0.0003338750691
0.0004132878358
0.0004015252495
0.0004114052549
0.0003938050377
0.0004396329606
0.0005073058962
6.106516851e+10
0.0001077349184
0.000118912756
8.494733319e-05
0.0001091151322
0.0001181445395
0.0001774366412
0.0001563470792
0.0001954487043
0.000255691854
0.0002278950487
0.0003702306344
0.0002224609198
0.0003233126354
0.0002719455651
0.0003372308181
0.0002587451373
0.0003932356305
0.0004658171383
0.0003004541331
0.0003687063341
0.0005128407777
0.0004269148228
0.0004198563058
0.0004493166583
0.0004106323361
0.0003557215826
0.0003330357472
0.000290454839
0.0003224129689
0.0004729215713
0.0003142650496
0.0002936367625
0.0004294124996
0.0002775745004
0.0004553139445
0.000364457379
0.0004229576348
0.0003592615215
0.0003203602578
0.0003299083417
0.0004477669885
6.071657429e-05
7.495628708e+10
1.635539991e+11
8.166291053e-05
8.104345776e-05
9.4211332e-05
0.0001050232209
0.0001398919479
0.0001449463856
0.0001937512051
0.000261623624
0.0002094462135
0.0001564982841
0.0002339995571
0.0003010347799
0.0002282177182
0.0003207733607
0.0003726984887
0.000307113644
0.0003407433339
0.0003027320481
0.0004145931878
0.0004907696234
0.0003540834968
0.0004966382088
0.0003974487826
0.0004284682208
0.0003879632179
0.000405958641
0.0003623143361
0.0003561965533
0.0002971527176
0.0002717518011
0.0003158662126
0.0003706718719
0.0004054844705
0.0003023396521
0.0004019171067
0.000392428464
0.0003110660825
0.0003953398253
0.0004321593623
1.038327561e+11
3.708861782e-05
6.227724932e-05
0.0002201135408
0.0001065133966
0.0002688834164
0.0001404004952
0.0001979945879
0.0002071665868
0.0002460539594
0.0002380141732
0.0001916157953
0.0002276355268
0.0002324281384
0.0003136654217
0.0002567390851
0.0002977629519
0.0002774367512
0.0003446914182
0.0003148784431
0.0003746230602
0.0004355211071
0.0003765424871
0.0004079078181
0.0003876787118
0.0004263604275
0.0002784944756
0.0002896062437
0.0003297766392
0.000331467679
0.00029251225
0.0005187171559
0.0004184723501
0.0002610452202
0.000490380084
0.0002721369095
0.000250723198
0.0004449285626
0.000410285805
0.0003847503192
0.000381769679
0.0004691845932
1.365795987e+11
7.077172307e+10
0.0001035656677
0.0001099095108
0.0001913136514
0.0001053189686
0.0001193939313
0.0001715098823
0.000144441535
0.0002341408066
0.0001859725177
0.0002947012357
0.0002353103092
0.0002522031969
0.0002768402547
0.0002805354757
0.0002951936153
0.0003128898366
0.0002890804659
0.0003226882169
0.0003274579575
0.0003192213871
0.000428294
0.0003107244408
0.0003753515488
0.0004118307183
0.0003561317282
0.0003391068645
0.0003568860701
0.0003065883994
0.0005506403324
0.000358980418
0.0004500853186
0.0003663692857
0.0003573706839
0.0004993180339
0.0004370953609
0.000485341592
0.000327886483
0.0004293732897
0.0004114318766
0.0003476055013
1.87777489e+11
9.407801694e+10
7.474615577e-05
6.102517779e-05
9.057562877e-05
0.0001437338419
7.682365744e-05
0.0001557891485
0.0002375569482
0.0002478554129
0.0002418299744
0.000136330457
0.0003252508814
0.0002652953557
0.0002807432842
0.0002751538083
0.0002724339747
0.0003774227822
0.0003337064322
0.0003170005069
0.0002759247215
0.0002880769274
0.0002304695826
0.0002589346303
0.0003026258437
0.0003687826514
0.000391683995
0.0004952517372
0.0003135390197
0.0003889692942
0.0003488549123
0.0002794446313
0.0003281051117
0.0003660272304
0.0004419900959
0.0005156174577
0.0004334546983
0.0005431899517
0.0003197532514
0.0004025091037
0.0003457303733
0.0003061206908
2.350206396e+11
1.493849649e+11
4.071293124e-05
0.0001215237506
0.0001008471413
9.516044271e-05
0.0001034408751
0.0001499189715
0.0001718434811
0.0002092279532
0.0002558462686
0.0002992290833
0.0002636685261
0.00028746819
0.0002221530246
0.0002933687296
0.0002268268887
0.0003451797951
0.0003934151695
0.0003336423554
0.0004622900667
0.0002376928365
0.0003285580898
0.0002523913094
0.0003714861703
0.0003448226211
0.0003965906308
0.0004672438642
0.0004503451817
0.0003769812438
0.0003439040316
0.0004236921695
0.0004318958227
0.0004750371528
0.0004431789426
0.000520166677
0.0004515331516
0.0003874581933
0.0004311117901
0.0003420169331
0.0004174708933
0.0004306795343
2.112883249e+11
1.955765359e+11
0.0001797180906
5.698739698e-05
0.0001479391067
0.0001552881892
0.0001907086466
0.0001459908451
0.0002158970908
0.0001902655152
0.0002155120614
0.0002185200091
0.0002623724881
0.0003294673091
0.0002528053261
0.0002342593638
0.0003088315925
0.0003190247048
0.0002822960106
0.0003026541518
0.0003574277454
0.0005008933538
0.0004291413568
0.0003195000264
0.0003179058504
0.0003591180397
0.0003534274738
0.000446436721
0.0004094991577
0.0004144247206
0.0003685997906
0.0003062706203
0.0004231159366
0.0003682336354
0.0003685641079
0.0004547909811
0.0004543225787
0.000492842333
0.0004328308949
0.0005343775973
0.0004701765109
0.000515699243
1.707891037e+11
3.333236172e-05
2.03789805e-05
7.542482314e-05
0.0001015861402
0.0001716600325
0.0002007797365
0.0001907890121
0.0001681504082
0.0002068143982
0.0002460365784
0.0002612495795
0.0002693848443
0.000313107756
0.000198637802
0.0002293050233
0.0003292615959
0.000308064688
0.0003677267055
0.0003992119014
0.0002952167652
0.0003001650766
0.0003852672341
0.000281861965
0.0002906015833
0.0003490499367
0.0003404836692
0.0003539389877
0.0003779063591
0.0003045603939
0.000374227209
0.0003025053344
0.0003955085278
0.00029783968
0.0002102696151
0.0004671422322
0.0004104423454
0.0003071358916
0.0002634524026
0.0003808322389
0.000401007936
0.0004223905663
3.856051529e-05
3.970613554e-05
4.225303448e-05
9.864422292e-05
9.912587795e-05
0.0001468657228
0.0001935503607
0.0001974399991
0.0001430671923
0.0001824891049
0.0002524671323
0.0002299101024
0.0003821191007
0.0002785156326
0.0002638570416
0.0002970516897
0.0002581544749
0.0002583893446
0.0003047500138
0.0004120286321
0.0002123803152
0.0003595826117
0.0003874165161
0.0002549180579
0.0003645509111
0.0002788546239
0.0003660133923
0.0004006401835
0.0004589585772
0.0003696021136
0.0004186008088
0.0003691823987
0.000505183569
0.0004922458534
0.0003949205073
0.0004626274011
0.0004231545953
0.0002820187577
0.0003505453799
0.0003619648874
0.0003193687075
0.0006085163182
1.639462797e+11
4.583739593e-05
7.455453346e-05
6.876072377e-05
0.0001552661572
0.0001260361976
0.0001266776994
0.0001379353287
0.0001597626321
0.0002054740102
0.0002111761846
0.0002543572961
0.0001941955087
0.0002289317996
0.0002474483408
0.0003554283312
0.0003250637271
0.0002677797334
0.0003235106642
0.0003229205134
0.0002860109409
0.0002967402491
0.0002972435352
0.000452949618
0.0004685029995
0.0004442806764
0.0003242475321
0.000415377833
0.0004227903031
0.0002654245803
0.000363290851
0.0004131207346
0.0003281530546
0.0003012606684
0.0003615493276
0.0004704609843
0.0002632253237
0.0003278531366
0.00031462262
0.0003314776392
0.0003475653851
0.0002945577486
3.002677687e+11
4.509113284e-05
5.790524832e-05
7.248661157e-05
0.0001154340186
0.0001187565901
0.0002336894404
0.0001385220754
0.0002006931056
0.0002044828098
0.0002718258393
0.0002319269086
0.0002347922429
0.00032561967
0.0002555158624
0.0001998152239
0.0002935203475
0.0003696529144
0.0003383702176
0.0003904628562
0.0002797690021
0.0002882707392
0.0003531040132
0.0005178996513
0.000361154656
0.0003525596931
0.0003401140655
0.0003229547197
0.0003375700684
0.0003834773779
0.0003976879552
0.0003189047228
0.0002775255952
0.0003592039911
0.0004869005957
0.0003059950771
0.0004219367461
0.0004003894406
0.0004255183551
0.0003117313527
0.0004576303065
0.0003828665131
2.21006545e+11
1.326256916e+11
2.100424052e+11
0.0002107775702
0.0001064686728
5.46811537e-05
0.000103363761
0.0001730263974
0.0002994349614
0.0001720715321
0.0002962875567
0.0003051096781
0.0002645845449
0.000222729377
0.0003007356062
0.0003489320156
0.000337155327
0.0002829122158
0.0003612067546
0.0002817621157
0.0003823941324
0.0003403577401
0.0003526230791
0.000272377724
0.0003742280311
0.0004518818761
0.0004146050103
0.0004178086403
0.0003595620664
0.0003978472247
0.0003392981701
0.0003120241728
0.0003301908894
0.0002528532949
0.0003214902892
0.0003759234752
0.000391628286
0.0003097336841
0.0003049705768
0.0003407873827
0.0004719063539
0.0002908790213
1.277282573e+11
1.815973223e+11
9.447770146e-05
7.147589761e-05
8.35512546e-05
0.0002058931179
0.0001418175693
0.0002012823602
0.0001441786411
0.0002076169832
0.0002428029591
0.0001537030576
0.0002527137989
0.0002267657922
0.0002693329935
0.0002723155044
0.0002334264322
0.0002943245121
0.0004133884263
0.0003182601603
0.0002599752561
0.0003401910908
0.0002915971272
0.0003474020789
0.0003730378809
0.0002717677718
0.0004096314622
0.0003491887515
0.0003686438724
0.0003120463695
0.0002931143269
0.0004661071216
0.0003260275431
0.0004442645931
0.0005931304505
0.0004559504285
0.0004631232685
0.0005204045431
0.0005068584936
0.000471142353
0.0003919934205
0.0004133017698
3.112136178e+11
2.51332575e-05
4.325465378e-05
9.018215606e-05
6.312114578e-05
0.0002218184745
7.159156659e-05
0.0001803156944
0.0001611480767
0.0001987159362
0.0001798232494
0.0002264306055
0.0002217103026
0.0002374561274
0.0001611205859
0.0003273977117
0.0002728814642
0.0003410106065
0.0003691459141
0.0003553452013
0.000337270659
0.000305404748
0.0002624607186
0.0003334004989
0.000357151336
0.0003325814248
0.0003025881441
0.0002495926827
0.0003020457888
0.0004061859948
0.0003189580973
0.0004218607501
0.0003995667354
0.0003555282254
0.0004622479734
0.0004680873996
0.000446957722
0.0003172102099
0.0003668069361
0.0004588477025
0.0003965032164
0.0003858345747
1.724210699e+11
1.361391083e+11
3.818747042e-05
0.0003005995405
9.608227364e-05
0.0001473436595
0.0001113143143
0.000232208225
0.0001554047364
0.0002527757986
0.0002476777314
0.000178051512
0.0002313865234
0.0002545187775
0.000289603593
0.0002215765839
0.0002855133559
0.0002984246748
0.0003051453377
0.0002566585021
0.0002855045714
0.0003996387452
0.0002687271155
0.0004305563714
0.0003760504016
0.0003278259062
0.0004292564904
0.0004329765007
0.0004096295323
0.0004067908404
0.0003823298226
0.000408425873
0.0003661159426
0.0003433978671
0.0004510945889
0.0003243294458
0.0004599642579
0.0003909350856
0.0004001227052
0.0003707954125
0.0003650802225
0.0004678086084
3.693887706e+11
7.567780343e+10
6.826766974e-05
0.0001411588663
9.206567304e-05
0.0001166397591
0.0001440981221
0.0001331353944
0.0001953367683
0.0001726966512
0.0003756325742
0.0002880893316
0.0002743997382
0.00024697372
0.0002786405722
0.0003108351548
0.0003914474368
0.0002613170618
0.0002829808003
0.0002970082235
0.0003179144106
0.0004469670443
0.000500124701
0.0004596681632
0.0005261358902
0.0003994723962
0.0004164601436
0.0004228663297
0.0003128327074
0.0002924394554
0.0003083166159
0.0003010035413
0.0002913832915
0.0004419265546
0.0004066691012
0.000387101741
0.0003934947211
0.0003287944195
0.0003728237449
0.0003858869632
0.0003299584968
0.0002853639869
0.0001871862946
7.483433262e-05
4.524514079e-05
7.668997075e-05
0.0001085800286
0.0001574727418
0.0001689361962
0.000150037451
0.0002141086904
0.0002464338761
0.0002430887445
0.0002644130211
0.0002977113245
0.0003779337205
0.0002915205222
0.0003106533636
0.0004108937726
0.000368167558
0.0003695474393
0.000350444795
0.0004802731335
0.0004438805222
0.000393985608
0.0003130527449
0.0003449683871
0.0003107475958
0.0003468766474
0.0003611582405
0.0003985957554
0.0003425771926
0.0003667157494
0.0003763311711
0.000284631683
0.0003123556073
0.0002484972686
0.000374980523
0.0003554682113
0.000412342516
0.0003745488345
0.0003334024383
0.0002886781801
0.0002002393328
3.427030401e+11
0.000115319243
3.598906734e-05
4.59604399e-05
7.147443484e-05
7.328980379e-05
0.0001761837205
0.0002273527504
0.0001595434729
0.0001937735297
0.0002699751587
0.0002557786615
0.0002755621228
0.0003577137986
0.000376253164
0.000406329493
0.0003684384868
0.0003857973938
0.0003821102641
0.0003251775498
0.0003790891986
0.0004952996986
0.0004128337187
0.0003333636933
0.0003271562296
0.0004383585201
0.0004227110219
0.0003534101345
0.0002943634058
0.0004169857085
0.0003696243489
0.0002902449628
0.0002919715378
0.0003943182121
0.0003535001479
0.0003753152832
0.0003651124605
0.0004102427389
0.0002134543471
0.0003021521285
0.0003258213992
0.0003411354806
9.604676536e+10
2.489571165e-05
7.714228182e-05
0.0001062353527
0.0001078265724
0.0001017247374
5.682497592e-05
0.0001562623541
0.0001821879079
0.0001223413301
0.0002260172402
0.0001835797469
0.0002207180106
0.0002358263929
0.0002168890101
0.0002793261207
0.0003119560412
0.000235080198
0.0003078597483
0.0003677317404
0.0003428577418
0.0003009944984
0.0004198764033
0.0003054484868
0.0005546968985
0.0004080276995
0.000486070944
0.0004059690856
0.0003607076203
0.0003305642826
0.0003657409382
0.0004384610451
0.000352883305
0.0004185508226
0.0004123579569
0.0003712809972
0.0005099558374
0.0004830867238
0.0003840279505
0.0003660878056
0.0003463541641
0.0003970297643
7.558769455e-05
8.963640205e-05
0.0003225709406
0.000144030893
9.059104385e-05
0.000174410502
0.0001700301282
0.0002498195753
0.0001303677801
0.0001771532854
0.00025105759
0.0002243681593
0.0003729037927
0.0002482334038
0.0002433943536
0.0002792552595
0.0003567155281
0.0004291480909
0.0002640543776
0.00024963751
0.0002585701629
0.00028045619
0.0003822315185
0.0003414758758
0.0003618559415
0.0003007907024
0.0002997667389
0.0003525182919
0.0003031581387
0.0003477656012
0.0003588807265
0.0003607096674
0.0003916183669
0.0004352677076
0.0003864497812
0.0003463891955
0.0003775538921
0.0003780621261
0.0004889395912
0.0003669055676
0.0003503694276
0.0003989495042
3.218552171e+11
1.137764243e+11
2.089398827e+11
4.675470335e-05
0.0001254107467
9.689550861e-05
9.818942398e-05
0.0002639144935
0.0002011222407
0.0001977041454
0.000312926349
0.0002548979957
0.0002650850624
0.0003353229381
0.0003651013574
0.0003618060871
0.0003173869606
0.0003784758703
0.0002940498975
0.0003201864754
0.0003432566456
0.0003411230119
0.0003071540165
0.0002880762759
0.0003482497707
0.0003798151485
0.0003858281724
0.0003638596737
0.0002630036782
0.0003854883256
0.0003465487739
0.0002681153856
0.0003263864219
0.0004517058455
0.0005813288619
0.0002021130235
0.000445244966
0.000354623697
0.0003987130123
0.000347404455
0.0003828230828
0.0002929668047
2.420792261e+11
1.085266819e+11
4.609542495e-05
0.0001574214029
9.56564534e-05
0.0001417630611
9.310131336e-05
0.0001551728
0.0001314904603
0.0001736156982
0.0002453178417
0.0002186656153
0.000274042927
0.0002533803449
0.0003039498594
0.0002905208922
0.0002269194614
0.0003054987941
0.00022003843
0.0004011888951
0.0003113488736
0.0001660459429
0.0003353341835
0.000352062147
0.0003107536345
0.0004239001322
0.000329818528
0.0004059799361
0.000464090039
0.0003687451848
0.0003632267704
0.0004692781377
0.0003615609057
0.0003625650607
0.0003853546614
0.0003660760677
0.0003594967982
0.0004283356761
0.000356216433
0.0003335257874
0.0004926295175
0.00033951578
5.832667871e+10
5.83939903e+10
0.0001069486169
5.948063358e-05
7.952236596e-05
0.0001039115613
0.0002079389295
0.0002377181402
9.168718866e-05
0.0002102799693
0.0002260934178
0.0002962792651
0.0002972661855
0.0003015612147
0.000230198215
0.0002680512479
0.0003387722871
0.0003841711399
0.0004119051206
0.0004914334415
0.000368270992
0.000340361496
0.0003396933049
0.0003250409256
0.0003739856041
0.0002594586946
0.0003313352654
0.000510892682
0.0004499062978
0.0003649816062
0.0004162316834
0.0003544869393
0.0003075365884
0.0003667235104
0.0003517003276
0.0003445425367
0.0003124349247
0.0003322390437
0.0002552506436
0.0003667641739
0.0003122186074
0.0003353748618
1.847852836e+11
9.845374557e+10
9.370808547e-05
7.435452714e-05
9.647857241e-05
0.0001684250746
9.37802203e-05
0.0001462814978
0.0001610483319
0.0001757556408
0.0002574184243
0.0001991053744
0.0001993470739
0.0003296545324
0.0003923097253
0.000298955536
0.0003100755833
0.0003356618668
0.0003740759112
0.0003493979878
0.0004339856507
0.0003542722748
0.000245383997
0.0002976127594
0.0004117435321
0.0003572291354
0.0003339205276
0.0004688189374
0.0003741201881
0.0003454901932
0.0003417090041
0.0004330269069
0.000455639533
0.0004297632869
0.0005401085664
0.0004809762327
0.0004058033704
0.0003329423032
0.0004602069806
0.0003965631289
0.0003988070501
0.0002900502077
1.872748383e+11
9.991138099e+10
0.0001252552361
0.0001040987864
8.198642387e-05
0.0001210627154
0.0001265325007
0.000148233983
0.0001193352714
0.0002361828947
0.00019397446
0.0002283224548
0.0002460038852
0.0002863935841
0.0003438497054
0.0002639438144
0.0002990775874
0.000340677392
0.0002595153627
0.0003336716774
0.0003872946805
0.0002976243676
0.0003817145327
0.0004057845167
0.0003962996887
0.0003601518544
0.0005046599938
0.0003721220167
0.0004019154316
0.0003742227331
0.0004326455277
0.0003737494299
0.0004300385435
0.000242765613
0.0003588581668
0.000423384807
0.0003976671949
0.0002933882021
0.00039883584
0.0003687517103
0.0004082122765
0.000405938136
3.762758777e-05
2.812202546e-05
5.003379597e-05
8.443687833e-05
0.0001131438417
0.000115404113
0.0001513887918
0.0001495358065
0.0001681857499
0.0003248389817
0.0003093648188
0.0002331624274
0.0002713803082
0.0002834706315
0.0002879348973
0.0002815049206
0.0003173600869
0.0003780096115
0.0004102688466
0.000324689936
0.0003057821171
0.0003028289253
0.0003204542998
0.0004507353333
0.0003640272794
0.0004405394043
0.0003732522995
0.0002822894407
0.0002489915803
0.0003068267389
0.0003791858946
0.0002907280144
0.0002636223721
0.0002556468973
0.0002983769265
0.0003865213223
0.0003762335165
0.0004192317377
0.0003661972413
0.0003423515797
0.0002757955275
0.0002531572272
7.715964224e+10
1.158615947e-05
2.934221298e-05
0.0001368556668
0.0001621833008
0.0001373466384
0.0002141786089
0.0001501476014
0.0001575653292
0.0001588921484
0.0001681424772
0.0002457059803
0.000251465033
0.0003211192389
0.0002973694271
0.0003351839613
0.0003278252652
0.0003185704542
0.0003165321241
0.0003318129671
0.0004022717289
0.0003177136659
0.000347710027
0.0003377543947
0.0003846846713
0.0002288080531
0.0002681588318
0.000282252508
0.0003310418994
0.0003831898083
0.0003298587117
0.0002945329701
0.0003239727231
0.0002888226896
0.0002867650118
0.0003819692462
0.0003131154857
0.0003425367955
0.0003660541818
0.0004143356727
0.0004266464359
0.0003714286028
1.451542395e+11
5.999955803e-05
7.171400323e-05
0.0001039759779
0.0002629961506
0.0001945359926
0.0001480754333
0.0003183665687
0.0001496263687
0.0001761003959
0.0002842761925
0.000271101577
0.000245732722
0.0002362826856
0.0002440371104
0.0002471225864
0.0002305164737
0.0003377902018
0.0003386993921
0.0003805098845
0.0004712769808
0.0004626867476
0.0003598881376
0.0003585736004
0.0004034027998
0.000299905778
0.0003297215191
0.0003751301519
0.0003935993644
0.0003634481955
0.0003991172375
0.0004208590977
0.0004342929893
0.0003654184622
0.0004051203571
0.0003212666581
0.0003485230595
0.0004041946817
0.0003051883107
0.0004229964715
0.0004545407347
0.0002840112756
4.120321214e-05
7.033768099e-05
0.0001305041363
0.0001044193458
7.965982702e-05
0.000195345445
0.0003307015521
0.0002131657942
0.0001767757739
0.0001774745159
0.0002529914665
0.0002987698575
0.0002638480075
0.0003397099961
0.000312969647
0.000291445455
0.0002920486138
0.0003213587729
0.0004035276716
0.0004056840251
0.0004929469283
0.0004279165884
0.0004459648054
0.0004081583061
0.0004086124827
0.0004910093042
0.0004076231669
0.0003406186504
0.0003514727304
0.0003143224436
0.0003254178364
0.0003843549908
0.0003811635357
0.0003735055448
0.0003759488543
0.0003194320112
0.0003367451013
0.0003783747056
0.0003274951612
0.0003586551914
0.000357552216
0.0002877812854
3.709547427e+10
3.2663563e-05
2.226425255e+11
0.0001443506604
0.0001009991958
7.922063251e-05
0.0001023480291
0.0002127061692
0.0002446720238
0.0001901087391
0.0002765807604
0.0002289641346
0.000223482519
0.0002570847184
0.000282777918
0.0003056638882
0.0002609736437
0.0003257974902
0.0003680864344
0.0002187018163
0.0003215091259
0.0003750117318
0.0003311270572
0.0003249570597
0.0003218453167
0.0003612566267
0.0004097461303
0.0003238803461
0.0004238357374
0.0003429834563
0.0002821273096
0.0002957171414
0.0002981835125
0.0003977755563
0.0003790355908
0.0003429885424
0.0003459847268
0.000327219437
0.0003254517619
0.0003199654469
0.0002552772817
0.0003777704421
9.847522134e+10
4.015080489e-05
0.0001134487264
8.214238176e-05
0.0001052589062
0.0001765848262
0.000171781174
0.0001589972116
0.0001385229073
0.000160863666
0.0002220012264
0.0002019854871
0.0001963930365
0.0001266273531
0.0002959992744
0.0002435003079
0.0003254768446
0.0003612442113
0.0002115030812
0.0003828057484
0.0003172767709
0.00050554475
0.000369679604
0.0004079223034
0.0003684616106
0.0004457153105
0.0005003806832
0.0003990332201
0.0003448848804
0.0002981085271
0.0003109065871
0.0002835179974
0.0003969660823
0.0004071898941
0.0002709906991
0.0003933980548
0.0003501310281
0.0004177138027
0.0003794905827
0.0003234436609
0.000290971701
0.0002529250637
1.803792235e+11
9.687142753e-05
2.800936984e+11
0.0001073015867
0.000146062792
0.0002346724594
0.0001406328585
0.0001904826339
0.0002579280686
0.0002402047536
0.0001911382853
0.000305650678
0.0003057793643
0.0002311931427
0.0001959237925
0.0002316006069
0.0002639831917
0.0002695374735
0.0003962901039
0.0003904133637
0.0002337012166
0.0003616536953
0.000337723679
0.0003043462639
0.0002915579501
0.0003600692825
0.0003625597048
0.0003441402292
0.0004156138244
0.0003595696512
0.0002604179067
0.0002669850598
0.0002906165695
0.0003792568043
0.0003241194175
0.0002449452317
0.0003295031801
0.0003991685925
0.0004133804631
0.0004340463162
0.0004224993161
0.0003537146075
2.073870922e+11
8.378612818e-05
0.0001415175349
0.0001634735321
0.0001342359656
0.0001059626728
0.0001535092842
0.0002531603378
0.0001891377723
0.0002276557549
0.0003086811251
0.0002321827326
0.000328185743
0.0002316063649
0.0002975305579
0.0003338638198
0.0002803249111
0.0002860358017
0.0004193141389
0.0002539909239
0.0004033071779
0.0003087195447
0.0003372042635
0.0003813484737
0.0003420293174
0.0003622284095
0.0003813185607
0.0003829469101
0.0003905137454
0.0003771126753
0.0003576267948
0.0004041703041
0.0004192079894
0.0002908910575
0.0003369518247
0.0004749678139
0.0003867599809
0.0003472432425
0.000410825385
0.0004090127567
0.0003300436982
0.0003164062569
1.592080785e+11
9.473490638e-05
6.916856081e-05
8.860735349e-05
6.616804173e-05
0.0002007592605
0.000182270852
0.0001657196363
0.0001503033133
0.000184914787
0.000235210156
0.0002344792571
0.0002975898159
0.0002573909014
0.0002964245573
0.0003440577393
0.0003121113243
0.0001920801337
0.0003176420681
0.000228928291
0.0003590152489
0.0002760849252
0.0002806360538
0.0003507166786
0.0003317415368
0.0004542357751
0.0003568261071
0.0002699856957
0.0003196467794
0.0003573281858
0.0003745971943
0.0004307618136
0.0004672497467
0.0003339551201
0.0003492996505
0.0004368774903
0.0003807663568
0.0004045870512
0.0002521587125
0.0004027632376
0.0004094291468
0.0004693024645
2.249118448e+11
2.736869606e-05
6.52470831e-05
0.0001110255765
0.0001859455908
0.00015678201
0.0001553523447
0.000163252671
0.0002376477934
0.0003578528074
0.0002607838012
0.0002132002915
0.0002924146989
0.0002162257964
0.0002552808315
0.0002881210982
0.0002749267503
0.0003996780404
0.0002744885776
0.0003637579678
0.0004057399158
0.0004211917974
0.0003067284821
0.0003620855261
0.0002906663604
0.0003379563455
0.0003215092043
0.000260987455
0.0002746535461
0.0003378059974
0.0004373858306
0.0004024276462
0.0004152896998
0.0003435838855
0.0003316163505
0.0002891875165
0.0002551907962
0.0003441411584
0.0004077238252
0.0002783729447
0.0004652588437
0.0004410822335
0.0001574182864
0.0001162490497
8.334089572e-05
6.115802589e-05
0.0001551799347
0.0001163248104
0.0002223998427
0.0001349991821
0.0001620398542
0.0001591557528
0.0002825057666
0.0002367399504
0.0002612058968
0.000322753797
0.0003326827291
0.000343633353
0.0002549374341
0.0002672125614
0.0002645940113
0.0002328523711
0.000378858813
0.0002729060428
0.000230488099
0.0004141403827
0.0003919113102
0.0003546709191
0.0003105497732
0.0002333671862
0.0003135102093
0.0003607232919
0.000330635342
0.0003944966725
0.0004352608626
0.0003103914
0.0003959378356
0.0004179976941
0.0003685005408
0.0004617307581
0.0002476660599
0.0004273270046
0.0003024786321
0.0003754844735
2.682123327e+11
5.117936997e-05
0.0001185508803
8.176758765e-05
7.980653888e-05
9.667661729e-05
0.000153087253
0.0001497408324
0.0001614038191
0.0001304726855
0.0002248492316
0.0002068212991
0.0002092449423
0.0002040229471
0.0002744097174
0.0003148306229
0.0003602232519
0.0002262300006
0.0003866527257
0.000434049926
0.000406483008
0.0003579841124
0.0004759695215
0.0003764408491
0.0003987322113
0.0003543072134
0.0004980376254
0.0003910845732
0.0003371774746
0.000429926581
0.0003003955831
0.0004808210756
0.0003978574885
0.0004681049205
0.0003957781858
0.0002897069895
0.0003157264275
0.0003443795198
0.0002854153948
0.0003979379965
0.0005177077529
0.0004643870896
9.537485693e+10
9.212030763e+10
8.593785335e-05
0.0001367354525
0.0001151890895
0.0001547862782
0.0001937784677
0.0003070446679
0.0001705338591
0.0001867249928
0.0001715413137
0.0002239811688
0.0003014775684
0.0004391053959
0.0003610118611
0.0002875012882
0.0004709772249
0.0002835102382
0.000576449
0.0003395696518
0.0004878063807
0.0005162987106
0.0003559033533
0.0003156709297
0.0004599206684
0.0005463353096
0.0004905658485
0.0004919147005
0.0005250510518
0.000515796032
0.0005370025331
0.0004756243634
0.0004766316411
0.0005653861736
0.0005109527742
0.0006496696409
0.0005929153128
0.0006073619654
0.0006704450227
0.000511744388
0.0006604732282
0.0007453079702
6.149244363e+11
3.97404054e+11
0.00017192402
0.0002181257542
0.0003529565161
0.0002718864208
0.0002524138695
0.0002377463566
0.000275901387
0.0002385666252
0.0002531660048
0.000472510482
0.0003953870654
0.000449697467
0.0004613211427
0.000467750504
0.0004364578894
0.0004240618057
0.0004627173728
0.0004036628204
0.0005823849951
0.0005656481149
0.0004571802498
0.0005774191966
0.0003908862955
0.0005110585409
0.0004627916524
0.0006252386323
0.0005932588848
0.0005422672197
0.0006449741233
0.0004876784245
0.0006260104231
0.0005525376188
0.0006713476818
0.0006389419156
0.0007623458005
0.0007825131688
0.0006513291975
0.0006892064926
0.0007386288248
0.0006276122951
0.0005213320372
0.000162500251
0.0002262128943
0.0002069757559
0.000280134691
0.0005806062802
0.0005052128151
0.0006666671388
0.0003507306876
0.0003737088367
0.0004783645178
0.0007167592402
0.0007547239761
0.0005487391748
0.0005069399373
0.0008033246376
0.0006985545292
0.0007915173587
0.0004712012801
0.0006382826208
0.0006074963193
0.0005528748833
0.0007102911619
0.0005330682806
0.000616545699
0.0007097776018
0.0006532501447
0.0007633694629