/*--------------------------------*- C++ -*----------------------------------*\
| =========                 |                                                 |
| \\      /  F ield         | OpenFOAM: The Open Source CFD Toolbox           |
|  \\    /   O peration     | Version:  v1706                                 |
|   \\  /    A nd           | Web:      www.OpenFOAM.com                      |
|    \\/     M anipulation  |                                                 |
\*---------------------------------------------------------------------------*/
FoamFile
{
    version     2.0;
    format      ascii;
    class       volScalarField;
    location    "3.996";
    object      Trot_O2;
}
// * * * * * * * * * * * * * * * * * * * * * * * * * * * * * * * * * * * * * //

dimensions      [0 0 0 1 0 0 0];


internalField   nonuniform List<scalar> 
50792
(
208.0896521
620.1481271
1345.095163
185.3784983
890.3471919
1107.502395
229.8203005
167.5420318
312.1213258
226.0216204
725.5727743
449.1900485
153.1521488
871.3160435
520.9238128
750.6319797
612.1055794
588.093673
359.4969521
1007.30467
1093.179933
1049.097306
1188.595975
944.1670068
491.1221257
296.4953038
1583.498179
953.0727275
479.2972679
768.4143127
943.1224725
1066.127794
971.446047
411.6901767
1321.625515
691.5837402
1239.693538
1616.080656
1141.893121
635.5940058
899.2284272
865.7087936
23.32673405
197.7529126
246.7370169
344.5862856
324.0314947
426.3435183
490.7394251
1097.901126
363.8704894
608.4499295
404.736332
650.5562681
705.5224376
472.6549576
1998.969148
1156.420506
1391.709779
1171.569589
1652.440355
960.0915054
300.8538718
541.0783886
774.3875922
502.0448818
579.1792445
438.9414115
609.691236
455.6707769
241.6149619
981.8552482
1352.042911
720.0321525
2345.976938
5207.607326
2368.984761
1241.241831
586.5202274
1018.740304
420.2706019
568.2686784
345.19737
895.1217158
694.9845549
430.6642048
268.2141356
266.2917855
211.7128854
208.8223678
1593.327779
662.1878052
287.5092482
762.446733
431.0953572
1018.488783
2248.649253
1402.705828
3328.750729
709.8626313
479.3483929
553.6287307
493.8489399
272.6729627
530.9718826
733.4974889
639.0375015
789.3560502
804.3679556
784.3867157
787.8971115
1079.579075
1114.035537
1145.601673
1844.515794
1898.287004
1415.0082
173.6298352
551.7344016
429.0357368
754.8310686
308.97102
553.1693558
933.350043
1427.642172
1715.795975
405.3422464
214.2582845
248.9400038
242.8564581
225.1155071
222.1327793
208.7785359
194.3329912
469.3253947
234.3358851
752.1639326
1210.383219
619.1507139
132.1557509
139.8709294
147.4820633
672.9651313
393.9344145
416.575878
477.5019797
751.8990326
1125.438353
1217.788867
2279.414048
1308.814072
1032.078151
1405.351278
1425.462142
2464.273564
2691.118876
1427.572398
1519.95275
1124.998717
1521.958409
1368.692544
929.1848638
630.3969609
719.3795735
1032.779568
2261.815978
2634.10857
2011.771221
337.9291603
53.80017833
795.479981
541.3357086
140.1945608
151.2466375
426.6684764
162.1792551
178.311352
181.7442535
469.9977014
213.8103935
653.2083551
596.2146448
562.1970809
551.1131684
922.6379795
604.6713465
286.9170591
220.3326355
299.8542862
459.3422241
709.1588327
893.005244
1944.475596
1655.001938
1483.631983
836.3362485
879.7804197
635.2681349
711.9853789
740.3277152
259.2366788
574.6558299
550.0266142
1215.576793
2095.782804
2435.243533
3643.467532
3070.793085
1088.228165
1210.483282
341.4991972
232.0058648
167.3566499
208.1392012
502.0751279
167.5829783
210.3534391
237.8870646
431.0086975
416.0218997
553.3047093
841.3208672
257.4003455
686.490731
586.4394706
494.9873785
565.6569549
604.8974906
607.4298037
1123.734033
490.6865247
602.201175
986.9459292
1037.892677
372.1564202
559.3874696
687.690013
1417.725195
1555.221184
701.6641208
735.5770118
487.979101
632.9284625
564.7156478
381.4641648
1234.150458
2840.877619
2379.491796
433.6589297
772.2671249
1398.614069
1180.081773
1746.867479
28.45188568
28.81591295
235.3376295
212.1274743
322.7554582
442.4800542
180.5769269
196.894016
578.7462795
396.7818806
394.1890029
514.3084329
1605.698832
1590.592835
1476.061643
1728.557932
1025.384382
1333.081319
2155.597038
1519.655727
1118.172383
766.1269427
334.5519128
1109.490811
549.868164
668.1363464
1199.303058
1331.281772
1419.610025
1376.020399
673.0040535
630.5286731
325.3420911
279.8406981
269.606665
876.3825909
2019.922722
2692.242944
2900.488161
3656.442191
813.495294
121.7266128
110.1095988
152.9094445
219.5147234
244.9999194
549.8201068
346.9894774
259.8393344
180.5522354
489.6500766
1316.153104
793.0993924
703.8259354
655.7473444
404.34189
342.6839203
289.8384266
302.6591127
695.4287495
868.6134117
593.891105
1576.324159
1559.674321
437.703398
857.6030451
1319.382027
1023.456229
287.0730454
569.7280339
555.750635
715.1986422
945.4287154
251.451916
819.1230855
669.1587603
798.3758512
1151.301799
1031.582579
716.2213049
407.9643819
525.8057102
760.7423956
147.8788519
133.2552229
189.1450702
109.307649
102.8824585
110.618017
167.0741696
788.4370694
632.4824423
1052.24669
855.2938424
1523.678897
166.249729
201.0852807
710.3561485
667.4090075
623.3853791
623.5059095
561.7146329
230.7587921
975.938733
1173.620372
520.6837837
829.5484288
395.3795208
292.9626362
388.8362634
484.9728745
1505.700374
679.2072843
123.2299369
344.6800254
5001.305604
2242.910151
1013.416771
700.5072452
635.9578401
1466.221861
2017.589727
2116.733061
655.7693248
517.0451325
347.1692848
335.3243935
308.1195938
235.3191537
173.5617769
166.4139838
583.9231553
218.2698082
219.6292881
476.6975694
804.7114778
1916.123171
964.5476005
337.8920197
3078.961313
347.3768552
442.3372704
269.1025767
603.3333948
931.8881466
552.6340076
517.7622104
345.8728108
628.2334615
478.357513
411.7011405
803.0371746
477.827299
1013.586703
405.8537524
839.4502201
646.1501517
777.9691124
2013.858704
1374.50796
1887.256812
1597.512938
960.3185361
390.4419276
1244.290424
1684.341614
1498.232405
131.2738921
119.0897555
308.8693183
158.1949942
124.1982327
224.4862404
254.1817283
373.4737803
661.1695108
386.1080161
563.0026076
269.4418857
975.398635
729.5495637
4291.123204
1250.751586
2572.889098
262.692705
1343.13335
677.7105037
487.8458079
1684.784822
2024.844445
844.0960026
813.4841053
1177.378397
1176.666779
1521.507422
1378.782374
563.5776253
1719.731056
1039.659476
2115.077732
2651.382184
1969.108066
1822.479959
1691.100671
1971.847602
1759.43508
1298.235523
673.7188166
927.2083213
389.41956
278.7414502
193.1121618
184.9583611
153.8459314
148.5061704
1181.668274
207.4746556
419.2047517
177.7534727
206.7425304
235.7496182
929.8308209
1381.018395
248.3257474
280.1507778
669.1798089
1359.099461
2420.585285
2271.902251
1709.2859
1452.469447
1689.472492
985.4751772
999.3435565
990.3574611
772.1934661
750.4679699
1134.792451
2999.376695
868.798155
2235.539091
2876.907826
465.1903696
523.0185104
1634.607846
2256.928978
1449.194553
584.7960869
342.0715013
1521.326744
1190.86392
605.3525549
253.1298709
195.1559119
226.1674886
189.0744311
169.4186893
2050.88891
245.8782441
238.4513613
208.642537
247.9438234
289.9800188
776.3224719
1495.399727
1234.975221
915.7295164
663.2220922
759.2534829
1633.975635
1060.729912
1317.055566
718.7126671
299.9010507
261.6348517
617.2210658
253.6835769
703.9141915
487.0069362
553.4303006
3512.667525
2285.125249
1079.02435
2014.735245
2453.206527
2327.031837
1727.039664
1492.199271
763.1018504
1173.887627
960.989566
351.823931
335.4489095
1091.61827
1080.151238
265.445678
254.2215921
267.338114
241.1533067
345.8853647
609.4594992
274.7075955
230.7321582
222.4922915
1280.274633
226.5087137
329.7618798
2446.485622
2344.396709
599.9811475
682.6975141
627.0698046
526.5881769
282.9094802
1630.491648
2208.071278
1005.804653
1395.575842
1331.110384
1023.323157
1128.399643
1833.189931
1533.255695
887.8356074
705.1339721
2266.865576
2145.117171
593.5787603
595.8425974
1232.815696
2053.626653
1426.250742
1511.150968
1423.871687
1643.235701
1039.936277
312.6478005
299.9364807
327.1252227
278.8245011
261.6918318
282.7553488
452.9198438
296.0334483
552.9057739
1026.160468
666.0398914
561.4995944
2008.841498
243.1108233
869.7852176
912.4581714
522.9744302
867.3131018
583.4155385
375.5495956
389.2620477
3082.18185
717.6756105
977.0501248
883.3803411
1251.038343
1464.184448
887.4311274
761.7925326
1176.53403
1883.122524
1284.739023
1174.279779
957.9710751
1337.891305
1239.61459
407.7115836
577.9046033
574.0435777
1131.670958
1874.116095
200.2079151
211.4984747
211.4820773
208.0617398
1752.751008
2735.799092
2710.997748
2410.901972
2027.064159
1803.872686
691.6436102
455.3509435
193.9804595
777.32857
394.7432219
940.5226032
256.2339747
1024.987773
571.7671962
733.1124713
347.1591337
475.3807239
475.1880766
3269.773848
779.4356255
1684.659047
1384.873656
585.1384401
1062.431049
2577.381088
2358.619477
622.7100831
598.1118201
1040.352023
1606.953928
975.5986441
807.6732308
1338.060363
928.0958487
909.6791775
1590.705261
887.4320899
29.75171477
100.9071877
156.3776421
174.0089031
175.7366725
166.578681
491.838062
339.9527174
1003.501872
1074.635323
942.0395144
203.7670854
265.3196677
715.1495795
1105.263319
2889.054295
1633.651271
379.3991091
733.6095299
369.434244
202.6678635
819.4250489
348.9149106
2534.152491
3682.757813
378.7505705
509.821361
844.7519278
1018.805451
1732.012038
1045.762721
1575.548073
2579.522789
1757.530696
1171.463017
336.2895262
273.2871358
650.6598506
2212.468567
1401.746221
1106.763826
644.1497002
1153.852486
190.0558134
212.0121208
219.129206
211.716399
280.5166216
186.2618427
1367.663652
1961.565983
1173.568948
1371.489912
1442.790995
1422.36853
656.2305994
460.4988641
151.4397011
570.3696788
1115.613992
855.8501639
362.7118628
240.0950848
369.8094207
1781.006526
1352.323256
1448.738366
4581.58442
621.307379
888.409027
1170.669602
1108.182086
1510.238732
1365.063909
961.7035095
689.1942892
1186.420948
2101.553588
1750.311083
1418.828541
810.5453336
1005.702923
593.6123799
830.915315
595.1983356
189.7997787
167.4642569
265.0288156
191.5318251
260.9899048
312.9991903
179.4235429
711.8022222
810.2126139
282.8112769
388.7962578
1352.395362
1131.324635
996.9149483
951.6832864
949.8676058
1171.353358
526.309369
406.9025798
1231.99587
1348.714945
1711.091191
941.4870757
404.1042705
651.3092187
4499.308137
2021.752348
2236.384922
1915.125152
1011.17482
1874.917087
1468.95827
1473.459127
1092.738296
1501.205775
1934.763832
882.0225479
409.2717205
1455.532459
1546.575842
1316.342795
496.4389684
421.3926291
289.3462287
425.458811
333.909403
304.4279632
308.8589476
308.9558791
287.1114021
489.2040828
389.0251816
1207.679005
1383.637647
895.6120306
1058.064921
495.7360725
233.115813
789.4324611
289.3082646
938.6890501
1181.104984
2063.573295
1593.752145
1040.967408
2981.292224
2979.467504
3091.079926
5885.007907
3911.060084
3642.883103
3775.824859
767.2825366
1351.801763
992.313529
1704.691796
1823.637096
998.8635215
722.3807996
1874.143834
2314.167159
2339.039268
3017.561291
538.0434072
152.4727911
262.2602513
174.6625799
503.77927
400.2662896
162.3331354
172.15621
169.6697365
147.8144772
153.8950085
875.9845047
830.8966773
902.3928689
1001.142143
1570.693339
2119.617547
1894.636298
1329.48258
850.9988578
2579.190665
2860.188479
789.9602349
409.3855511
604.891306
2036.041956
1736.420952
908.0517932
2417.640623
3262.245451
1773.864356
1920.75748
778.8159221
884.3658716
795.06652
1008.958233
680.3303625
1822.99014
2188.955299
1806.106472
329.2971251
431.8645223
70.11861465
206.7946426
764.9072694
300.4803265
491.5836817
632.1777942
592.1594602
298.9267169
302.7122275
453.6835889
578.3490338
551.8168823
506.6989062
444.4782983
415.7653533
611.3270805
371.9965555
583.555119
459.1756218
1047.038821
1154.865911
1950.250091
1170.006072
1432.515181
2259.932609
766.9625423
1858.056198
2257.379613
1296.394786
1592.562631
4110.084178
1288.380222
961.9108538
1223.297918
915.0395837
693.4589698
981.4388692
663.6240307
921.2455124
601.6523321
404.0076206
343.105972
665.383389
89.98728504
231.7978085
262.6222661
601.0081781
883.984553
1488.914192
1054.021521
676.9274142
382.0940015
386.7162537
228.5560194
244.1006217
238.6656542
316.9652281
460.4064283
244.3701117
479.0662074
448.1592226
280.3568746
553.8828617
718.7843553
1933.311406
1481.882156
1175.607434
545.5352478
358.504962
1294.870732
2374.549116
1069.51406
533.0462439
3659.89301
2696.560262
1365.294206
843.5669663
312.4365
491.090075
501.7629931
829.1904417
513.2997977
574.044833
388.4431316
558.665652
203.286302
351.44627
523.0924396
261.3292578
265.2395142
237.1039123
198.0774199
1572.503846
353.0872192
397.3381125
465.4613585
228.5915921
298.3491487
774.28985
391.6029297
287.7898473
415.727173
336.208919
454.8767266
1703.961934
1367.086039
1324.89021
1126.044336
2138.232512
1301.576179
1099.166116
1914.985908
654.7846145
1265.125671
906.9555024
1831.487531
4287.747885
2725.325058
1325.862153
1946.709674
1640.861601
2559.421413
864.4545449
528.9811497
369.0177757
338.5578349
446.2291432
678.8170937
593.6270412
106.336194
102.1364524
111.692135
122.8695299
1491.638215
1395.501762
284.5427251
394.6120383
942.7992177
865.4576237
973.197104
808.6846118
420.0683513
342.2637063
257.5885508
1109.474515
1305.023691
1565.342359
2375.623912
1491.648954
1925.323476
2019.144412
2084.543389
768.1462641
848.0697695
873.9803586
948.5918592
2335.901269
1857.856004
1466.231933
2385.901191
1178.13396
2451.042923
2409.645643
1734.171896
1193.806155
551.1185008
1114.748923
209.7161067
1818.927156
487.2439586
188.0456669
182.1118667
157.9159798
141.8830129
296.8506036
125.2521668
455.7437113
136.2916763
140.6266092
337.6233918
375.2188364
686.5016285
852.9961761
381.9115119
941.5453469
1461.73634
578.0915725
246.7986154
345.6148632
1053.060525
1728.91558
1144.388804
401.2542236
908.6547276
1133.260728
682.5767072
486.5222504
565.4045929
851.9711624
1285.658918
815.9225613
860.896857
622.999647
1973.826491
762.1088594
1210.657366
558.6536796
808.1572014
783.6555142
267.8843376
947.8715829
194.9041664
176.0060052
167.9359543
156.8914159
211.9102932
256.9204771
272.6303481
237.1926491
224.8833715
832.0693693
228.5885239
468.7637171
1105.432009
874.8135571
1492.495191
1429.083286
1215.626145
561.5106606
713.047742
831.369381
577.3767243
596.7452846
1052.888359
1315.455027
641.6189979
309.315069
788.940854
722.8641735
633.6103176
864.1447577
671.0968493
601.4061058
1073.788773
912.7610194
279.3687497
509.2763329
656.2040739
351.1726915
608.3601835
410.8413817
603.8461332
367.5382826
593.8318905
676.0277092
467.796266
401.7320806
346.8911441
281.1483605
282.1458587
266.9708322
264.1215859
240.2653107
228.1262114
361.0701677
1502.089487
1729.801426
471.1676447
277.7149213
269.4724885
1914.832241
1640.554235
1426.824746
1509.503932
1504.225819
695.7068027
355.8072486
375.6498322
763.5095717
963.171516
560.7636371
695.2904788
828.0392441
872.4499195
287.3349879
357.0078017
2151.568331
450.9782338
595.3249713
516.9668973
490.4537816
806.239154
722.5567275
955.0956997
1688.277275
260.1791934
281.2350821
265.8188371
237.6895953
267.6212526
292.4957767
414.6055898
791.2283557
407.6941682
289.7366162
289.4524261
603.2462597
809.5455818
710.7687056
953.8323033
1221.525006
1079.491446
386.2813887
309.8496954
490.761264
867.6575603
266.9391391
1134.094578
1365.496077
1027.036774
1114.406021
680.406893
497.708551
521.2044991
469.3929139
372.7962881
538.1272185
321.9991143
466.3944759
1476.360257
2244.033913
820.7259102
1164.19261
614.421294
380.6603539
611.7443346
115.6289369
188.2345879
277.1837385
226.1377878
199.9352999
249.8567196
339.4430603
251.2829657
475.9529694
382.0318018
304.9588789
431.2422964
420.1269828
476.1012412
1991.52775
587.3649527
919.6147899
507.6743138
532.9963002
747.8645577
746.4789514
971.9757624
601.4364797
808.1555413
785.3379481
632.6625571
419.3316899
334.49519
592.5963871
341.9218432
410.4478035
405.757955
788.2702022
848.872963
1428.979891
308.8240741
750.0517161
668.3041712
789.5454232
635.6936138
653.9244172
1217.140624
385.65146
185.7341008
192.6820933
199.5520461
177.3695318
241.2487632
308.2611934
719.5825446
605.4053076
1125.763444
347.0257452
315.7936648
466.8976989
385.6952195
948.9916878
1048.234288
1538.560043
1376.603892
595.3568232
245.0642543
455.0706085
586.9900667
238.1296569
328.5570612
594.1266858
626.3535623
219.2037052
321.1200847
870.117821
617.4200961
881.7508249
375.1470701
325.5919816
848.0147927
1297.938184
291.5409264
841.9554377
818.7893977
1521.591249
741.3828467
1405.926383
1844.249986
833.1551991
282.0816051
348.915697
387.6498109
346.0868362
287.0240625
1396.705241
1218.125131
1151.617912
1086.17534
1279.652328
712.305993
281.5280508
340.0904764
470.6626572
611.7003823
409.7212155
299.9717634
861.8633308
1707.669148
388.8633436
1091.078999
869.7036697
806.9451534
477.1390481
651.7450914
905.3562767
751.4642357
1244.666958
3705.43792
2737.643294
1598.230422
986.7227156
2604.266392
1374.618049
1100.082312
1287.551196
2690.086208
1074.877859
1446.970501
734.0630913
207.3245409
1212.949813
310.993239
221.8922981
284.1990899
246.1035155
200.4819207
169.0373453
160.2604381
197.1473684
954.0608451
950.4503023
784.5425499
887.2112664
755.4747503
899.8355032
1066.396968
300.4553075
256.6454583
299.1325066
748.4121374
1329.047867
1087.210219
892.3381491
924.0619313
1483.919635
1707.86068
1176.623689
470.3925543
390.9046136
944.5545814
994.1740648
936.1585896
542.3413669
363.3261773
503.0819307
734.5376841
2663.306417
1078.581947
2303.388251
1380.619045
1273.832621
2835.317299
1242.932353
31.4345781
144.6681739
154.0558752
210.2476357
223.8855335
220.7725095
396.2761212
635.7578444
780.9541894
343.3865441
232.6028003
928.2464728
913.2869686
414.1196031
376.7803442
558.7417739
664.33798
762.4443101
844.2148701
1063.956856
513.6283372
900.4598639
991.2021177
1346.982456
720.1119478
744.4756072
515.6999896
778.5767381
1125.379883
528.7181476
1042.492195
1536.892731
849.5471414
296.2170153
588.1344663
1162.613406
1341.009321
1423.755565
1063.260169
1243.391156
1144.417599
76.44066261
304.6485276
244.0824959
309.1553708
240.8824353
275.469645
547.7104807
482.3007901
617.8919812
1154.304765
478.9822977
465.382696
944.55391
1158.716764
300.9230797
461.8535949
758.2297515
1520.574002
340.4295892
888.666528
1604.371946
2060.617311
956.3688342
866.8523283
2027.543517
766.4328949
598.4754745
1107.469772
998.3330891
1725.246714
2155.672787
1703.788725
2418.380505
1697.746537
788.5032302
578.5321379
1273.692762
1247.143295
984.2630835
1775.230244
2053.483034
1847.27062
5728.994099
65.74786316
117.0307266
171.838633
163.7496679
165.6378354
178.9018701
179.3064424
524.5376273
1007.715144
1214.122219
936.6859536
1216.009408
2218.401271
2608.022398
2617.029324
1843.28445
1291.209776
2188.710144
1071.011963
746.1006706
251.3468658
248.4277468
284.9738994
215.5627345
440.9227401
1079.246866
662.7525787
602.5516526
1073.463741
1001.950655
1613.966033
1445.104191
1807.276369
2214.608239
3079.100239
2296.544006
2184.08724
1926.747995
1168.724339
551.4079267
426.2526784
2589.253784
60.32731121
116.5607411
164.1591663
157.6761628
156.5167391
170.9599248
158.2994391
691.8200378
203.4262496
562.4119442
595.7129898
313.7958755
323.4573458
292.1940509
494.8763954
689.8482703
511.2435117
827.615593
741.7736463
482.6044284
385.9082553
275.931043
356.3369751
981.8784706
1772.615434
852.1816706
701.3552891
1385.276594
2417.618661
2560.392267
1232.299623
743.2028016
737.4501296
1062.143339
1729.852414
1492.89883
979.4126171
579.2204725
499.5499952
811.1908679
384.4000951
808.1635634
157.3621994
149.9988354
151.0525271
155.440265
179.1363542
106.5436462
111.6713334
575.0807282
214.8876328
805.8609283
1498.269495
2397.219494
328.9942474
2056.113808
855.5964133
1159.894366
772.9273966
1052.215852
923.4687366
720.8021543
679.1962943
960.2854814
675.752591
425.5930048
395.7204097
676.1439845
255.0799911
220.2205512
806.7196681
1997.605727
1135.226028
539.3807094
1195.801132
1769.017338
1394.709782
984.4523431
960.7658978
890.1398854
994.6028798
592.9833404
1058.035854
856.469382
10.14017832
52.84169087
154.4021681
149.0957646
160.1175419
573.0634401
201.2265723
478.7381579
262.2802506
303.6141256
203.6176778
204.8921449
261.0250449
375.4215787
675.5795371
399.2256358
283.1425893
580.4559721
565.0663095
821.6415115
251.016719
234.9902678
921.3867049
647.6623118
428.5169618
456.0632052
371.2799937
242.1462814
295.3106472
863.3640177
1505.39488
1108.839463
399.4197488
309.3285496
387.4055307
553.7521352
364.9397655
246.9199233
299.6918902
501.4385606
603.0034713
191.9780587
188.2347224
159.3816655
151.9321481
186.1222242
181.2819838
569.5461141
588.1444901
612.7608341
263.5550024
246.4538992
238.7278432
238.6606177
566.7079217
1179.878979
1975.442838
2003.743804
1045.759837
712.1541233
602.8238985
1831.393795
1487.522125
925.550539
606.9762632
577.1052807
2705.045714
1735.292376
779.9687072
199.8701588
246.1010934
386.9051998
465.6433235
643.2372802
695.8271089
764.8413105
444.6230513
382.6135949
580.8305816
203.7252154
306.0019874
1032.804863
593.0072707
791.3682881
142.08795
159.5504571
167.8260737
168.6905565
410.3550832
302.6654542
331.7337401
316.8784524
198.197281
202.7309809
196.5155907
603.51735
499.5444586
1932.447136
636.7912727
726.7349743
2494.699974
2959.238815
3030.519532
2965.640424
3216.122988
2883.715265
2710.011121
1970.21011
852.18465
953.6127036
368.0168502
212.1577313
166.7952791
259.4502839
1018.962917
202.0019246
169.0405832
365.5447966
539.4972524
535.8353968
537.0058348
370.369107
262.1686152
211.2681085
199.6572483
1748.864427
310.5626237
287.3368287
258.8373733
280.9084395
258.0509808
373.2399893
323.6811682
242.8000396
405.2207878
1331.130008
546.8489735
601.0552672
367.1284077
219.0876209
233.5217463
238.4078011
243.4390369
694.2927948
502.175782
1805.809597
912.5951453
878.2387274
678.8573925
895.5471692
619.5675416
245.0721316
234.9787437
244.6966562
297.4177527
694.6598912
442.5028323
265.6830294
236.077793
325.9193648
329.0027407
341.836363
432.0407345
310.0096808
711.2680186
901.127173
977.8361923
1240.385864
1393.168464
1026.643301
1356.659235
1646.93981
1102.109375
839.6051879
494.8957009
706.5264259
1381.126515
383.8182276
323.5503858
835.6771728
508.0730741
396.9987478
852.8888757
1177.169712
1791.619839
1197.857165
1211.195229
1060.741162
455.8986739
468.6653296
649.2159175
974.4642158
782.5846909
892.1999137
449.327811
647.3720831
824.837379
680.4593614
562.7170357
641.2018279
401.8237725
786.425242
1008.686154
1098.477906
1046.95445
608.6387544
925.2354537
805.6099394
957.9242466
409.9924129
872.8666371
992.2042301
1318.929558
1584.476131
1214.682265
1205.800792
750.5028404
1088.680018
1209.834817
948.515084
941.9428741
663.0695962
865.5505418
1289.856294
802.5539716
997.3528894
1925.773647
2065.593505
1439.551062
808.336793
1023.962774
958.5285464
1165.325709
1134.357863
1013.918583
1454.294847
1771.210852
934.9806136
721.9436489
827.2514564
767.3932747
1260.449354
994.5644991
1389.290692
1376.801185
1483.094555
1271.096026
1211.454395
822.7545459
747.1835127
711.8619792
38.59217452
537.8831243
768.4064339
1019.758625
1286.967723
802.0621685
1022.39739
860.2407988
1270.463013
1198.341323
1420.639275
786.874925
974.7081729
1050.574252
1125.955343
900.3633961
1624.453546
1404.90778
873.6524284
1228.882758
1145.756418
1584.157535
1469.552242
1013.68555
839.5105637
1455.132112
1417.842643
1083.537826
1685.742486
1554.532574
1546.683968
1308.101387
942.225443
1111.245885
1685.7748
1724.342484
1537.091184
2084.771212
2265.617088
1556.270586
1783.44959
1292.872794
535.0640185
578.4827586
2426.032401
566.2550632
1045.126213
774.0558754
1133.996283
1145.664623
1359.747769
1341.49097
1297.247426
1364.100551
891.6523949
884.9834478
1194.317318
1142.695741
1215.426922
1578.363193
1303.383611
1297.244559
2100.185299
1653.569677
1387.867654
1343.838441
1781.578656
1427.545262
1656.097511
1400.682198
1331.882202
1565.952361
1628.57784
1508.497363
1946.279187
3528.704691
2667.454907
1791.332887
1750.987698
1872.169133
1829.386238
1552.016721
1227.794153
1466.040877
428.6127468
452.8325785
1245.836114
1508.264048
939.1908891
1361.685259
1942.747418
822.1530074
1600.439297
1652.030582
768.4432513
837.9004471
1592.112672
642.7262409
1416.409938
1309.032711
1384.403681
1706.778092
1480.621477
1580.391373
1291.636078
1122.644549
1159.732109
574.7668358
538.7303349
865.1521666
3885.146656
660.4582785
901.7648912
861.505283
1692.724469
516.5593951
987.2493429
1266.529822
544.8819399
1662.962761
1242.379453
1572.46462
1368.993271
1245.360862
2502.431333
1432.481112
819.4670787
570.3357684
696.7817677
1007.768701
1031.056857
1526.121963
2199.093166
1720.758991
1369.36782
1446.690229
1211.494221
999.6338489
1394.024212
1183.977894
1260.462596
1097.82005
1244.049988
1285.860665
1752.201128
1476.143297
1627.080236
1553.929203
1038.51295
1352.060917
1453.475044
1608.542915
1302.522049
1186.481648
1040.7516
1454.308447
4774.101557
351.2591746
1032.873632
241.1534767
888.7720865
911.4747742
773.4159106
797.6328881
981.8800013
702.606982
1266.835522
1405.106723
456.5846285
525.8959686
1539.891398
766.6236051
895.3700233
698.359703
1316.034859
1384.774086
834.6933357
1265.809429
1044.744165
1569.336487
1482.442858
1232.286431
1604.314458
1667.325376
1703.504827
1145.999622
985.7815195
1516.347021
1318.427618
1797.370008
1560.860973
1107.57183
1572.795794
1280.19013
525.9611318
525.7551321
893.4629337
647.7661968
507.4400043
365.9319327
937.1704144
2010.583852
945.1100409
759.4921282
1164.311248
2009.263621
398.3371505
721.1159071
880.7182795
767.5564095
1135.561014
1062.935934
1013.50469
878.9880429
1366.706211
884.531365
1635.575892
145.730754
305.2316232
1393.974963
1118.2022
286.8970505
586.2868821
407.4716844
922.2264106
508.9704557
665.3651612
337.6144564
420.8747527
912.7886442
992.8888372
794.2843803
601.087796
608.0689614
857.6827718
928.7508765
757.9960701
716.774721
1208.652879
1293.868287
1126.46891
1092.593397
1178.409859
1871.928494
1946.267346
1099.562154
1126.027147
1123.805597
1134.625976
1119.336135
1126.013173
1137.944
1116.213019
3168.89382
574.7930382
285.7984035
208.7011547
328.9622783
281.6995339
1249.777328
1402.582943
795.5121459
301.8863145
531.7219518
1112.306656
553.3739342
1241.402653
529.8057524
569.4263246
820.5310198
757.910964
974.1941595
911.2890119
1378.281876
1153.124387
1730.917696
1595.922291
1103.910406
1137.749601
1202.6624
1222.194445
1220.877112
1212.238014
1202.044086
1205.214117
1236.824856
1196.173905
1150.037259
1107.534976
174.2671546
454.9310875
291.4392164
280.0612099
370.1557157
525.4668641
737.4077278
738.6013725
821.8157316
860.0888978
584.9652385
1205.720436
484.3188164
768.5564809
1332.366823
1129.801023
1319.928992
968.3344365
1187.797664
1353.815456
1582.303598
1090.164193
1148.713624
1180.0952
1260.41649
1290.981045
1283.178546
1320.166782
1304.475639
1312.797009
1331.992397
1318.368519
1290.160506
1231.069586
1185.097357
1144.860123
1100.182154
338.2673881
232.9687614
213.4522516
204.0986326
266.697406
272.2482836
313.0740545
648.5271342
421.5848002
397.5321033
563.7605383
1326.984337
1921.161435
884.5881282
1008.356717
965.5078851
1281.347478
1246.791212
1578.338875
1105.161569
1174.833789
1213.817868
1282.661042
1328.842047
1372.84415
1377.954111
1374.380654
1381.404254
1423.306041
1405.734371
1408.414517
1356.359106
1320.777455
1270.012902
1240.399084
1178.094931
1102.093708
0
0
146.156845
249.5366139
574.3880267
474.0588023
260.2972761
347.1983499
1324.793672
950.632843
636.9100661
1191.096566
675.4868648
1117.952559
817.104952
1252.420316
1152.007429
1672.127939
1089.808496
1213.184774
1239.814467
1274.441201
1368.090099
1409.772246
1423.779197
1443.156022
1467.895534
1490.945453
1491.622617
1490.709691
1459.04475
1451.572813
1404.054533
1349.702037
1311.444109
1258.668165
1187.926651
1139.741627
245.8020975
207.9048926
193.9505561
183.7504797
428.1534725
327.2795452
429.2416864
378.243
184.2932947
773.1578807
328.0460078
1133.179964
1338.395929
1548.496138
1209.679745
1145.862738
1628.392902
1089.020246
1209.619734
1261.457285
1308.100088
1384.831651
1459.519071
1518.387201
1563.230211
1535.909114
1581.295227
1576.113451
1590.526837
1569.955408
1567.032389
1536.395004
1502.300263
1419.612953
1356.789551
1306.361056
1264.70525
1173.607052
1099.283983
64.95491218
152.2620114
227.7437326
150.9910407
195.1767529
202.5858242
192.6326453
429.8859032
1483.5919
1283.422379
1147.565604
1691.770268
1379.459265
1130.209105
1791.44052
1787.101812
1155.913584
1234.454657
1284.31977
1376.959813
1475.305055
1492.618801
1591.085444
1604.137918
1637.0149
1651.311301
1679.31502
1665.49588
1677.986321
1715.766013
1584.438744
1584.416337
1527.219648
1414.403459
1376.157651
1296.641209
1247.6561
1154.266007
0
2014.020304
1235.22923
548.6965076
252.8198934
244.551246
496.6701897
886.4687835
1247.264786
1687.809747
902.1514398
1135.615189
669.9015561
898.9089349
1547.51225
1102.26311
1205.397541
1284.773738
1365.419823
1465.087894
1514.969283
1597.048035
1657.544289
1702.915763
1709.324943
1751.102244
1805.759983
1775.973892
1798.848071
1733.285686
1669.14405
1647.816346
1597.227976
1537.044563
1423.372865
1340.649451
1286.442597
1211.584835
1121.170252
391.7314651
504.5470735
175.5061251
161.223458
511.9446428
173.8330891
181.9175401
1721.591612
1058.664298
811.5418626
1088.523258
1165.85209
1042.556211
1465.350356
1126.056304
1209.553342
1347.268163
1396.159283
1484.105838
1584.330016
1631.649608
1711.719072
1803.555005
1865.258178
1915.284585
1972.02332
1970.519821
1925.3681
1869.131285
1769.230899
1666.218845
1633.668522
1571.750232
1452.159444
1372.399365
1336.67841
1274.420584
1166.802722
148.2195642
138.6798619
217.4267301
212.545239
225.8158266
229.9701612
131.4456703
794.6042443
1440.240493
729.9952591
759.4804161
1261.389191
1045.467159
1079.857465
1166.496914
1279.025161
1356.10286
1463.788922
1502.950229
1602.138302
1678.585249
1780.488997
1915.191821
2031.570513
2108.514381
2203.269387
2195.544007
2121.205133
2013.167556
1878.569079
1776.969502
1702.692205
1651.535922
1510.79284
1460.584368
1391.448658
1299.390671
1195.599737
1126.187767
162.9374378
201.6800064
269.3168401
240.3889347
224.7234804
197.5462099
961.428183
619.7307649
1670.601054
1841.287396