/*--------------------------------*- C++ -*----------------------------------*\
| =========                 |                                                 |
| \\      /  F ield         | OpenFOAM: The Open Source CFD Toolbox           |
|  \\    /   O peration     | Version:  v1706                                 |
|   \\  /    A nd           | Web:      www.OpenFOAM.com                      |
|    \\/     M anipulation  |                                                 |
\*---------------------------------------------------------------------------*/
FoamFile
{
    version     2.0;
    format      ascii;
    class       volScalarField;
    location    "3.996";
    object      Ttra_N2;
}
// * * * * * * * * * * * * * * * * * * * * * * * * * * * * * * * * * * * * * //

dimensions      [0 0 0 1 0 0 0];


internalField   nonuniform List<scalar> 
50792
(
12843.01713
13150.24599
12301.22063
10287.43008
12238.74469
11768.25562
11602.41535
8270.115213
9487.063039
7573.616691
8607.629304
5312.894624
10373.29023
8264.42249
9045.079739
9418.060652
3716.191625
2835.834957
5490.334902
3658.280932
7565.501053
7282.554483
2742.476603
3919.452015
7125.373514
1152.995171
1761.261577
8155.477603
4089.54611
4486.721291
6507.554248
3747.979142
2179.881422
4521.345929
2871.001056
4780.998503
7068.53277
4461.616991
4645.632872
6105.689125
6943.268506
7089.385881
9079.589136
316.8061075
298.206638
6486.323883
11086.38964
10492.88994
6683.027325
6803.77615
7341.885067
5977.416059
5190.018866
3584.741404
3968.011777
7745.13472
8737.997324
6966.049488
5217.372088
5490.649462
7056.179964
5370.255965
4464.437436
2945.181615
4852.675291
7544.13242
9273.891866
7347.028529
6313.110304
8611.230295
7949.832622
7843.180779
8940.011807
6352.088181
7721.166399
6842.785899
5237.473132
8876.475831
6524.101633
8832.332227
8148.511899
9085.197997
3426.089706
2889.589705
11883.94141
196.5540579
4016.502453
4986.745763
5050.187416
7219.49045
6254.418968
3130.09393
3888.825193
5401.58299
8078.214833
2290.345546
9043.865695
6926.601635
8053.676682
3450.818437
6323.255243
7675.876338
8942.146949
8503.71952
8071.625717
4849.479085
8443.053784
8941.526057
6323.831882
8660.852242
8360.681961
2544.918912
9085.417085
9041.745806
7512.341116
4848.628729
6215.674406
8423.103323
7872.659099
7407.298621
8363.220175
10417.62323
9684.929697
8109.619861
5742.886786
5472.894389
11326.97412
12080.1123
7781.647524
6194.177189
8048.990528
1087.328704
5552.74074
3385.225934
3456.571582
8492.781343
9500.252458
7784.017117
9449.770583
5422.033374
7977.079295
9813.937852
7909.182313
9169.861389
6747.269825
9583.492413
9879.457038
9519.285767
7332.420008
9300.449767
9913.427496
8573.265687
8435.766135
7790.300596
9730.592749
10366.01594
9209.065089
9350.717769
6143.894181
6791.133014
7813.341541
7444.818787
6772.713231
7379.933176
8470.45307
5878.786706
5441.917268
5059.636855
11369.91674
9098.753701
232.7318305
5969.707167
3644.307531
4637.386713
10489.79927
4901.888255
2756.218504
5734.699746
4121.112592
1034.049318
6095.277008
3528.983117
7514.217571
7247.893773
7378.092942
9412.441701
9435.807913
9450.244107
8751.529864
9659.103557
9429.540953
8131.752625
9669.505017
9787.122863
9029.709152
7856.48227
7750.036039
9508.70238
9969.54546
5159.52239
8941.958255
7061.150371
6759.012111
8212.016479
7487.653387
9963.779274
9739.303844
7074.342744
8634.743174
6834.099275
4927.799797
5312.146509
11875.2665
7354.023954
4447.699559
5390.379386
5279.809799
4560.71553
6067.950608
3976.781995
3164.32997
9048.172475
6421.632775
6983.539367
4887.33298
5402.385077
5757.140883
3929.365896
8604.632572
7883.196216
7819.279024
8117.721535
9433.108054
8808.656265
6252.630112
7284.175199
6369.663102
7961.612553
8626.18776
6202.106781
10545.2849
6600.609096
7767.115805
7254.726579
7095.529724
10307.83774
8074.798475
7465.274146
6703.214996
6374.321026
5423.917228
3353.598778
7433.484465
180.0640404
4267.25198
195.2337351
189.1551048
526.2603362
8726.324013
8551.601225
6581.014943
3908.395714
6091.806891
7042.611751
7395.990974
5480.652204
3581.200644
3110.408932
7663.431418
6576.685872
6137.950771
8522.765044
6822.019369
10376.54617
9857.032964
7524.336388
9190.180679
9468.969646
6204.812653
8486.816052
5100.655834
6054.981925
8991.565559
8248.056884
6716.597293
7046.045883
8360.379741
5588.869006
5498.423767
7986.185824
7472.665699
9269.993463
7756.056102
1651.612568
7039.920215
8285.626008
179.2760808
357.4466665
195.2870281
3092.995493
10863.34821
7886.402117
5406.801736
8190.959009
5817.700194
3959.116161
2799.111404
6136.347744
4368.834621
7909.980492
9530.084817
8526.912944
6678.859294
8783.048388
4643.96565
7393.626454
8992.579687
6593.474625
9582.297582
7922.477949
8198.275268
5469.082686
7957.914008
7778.897372
8259.824898
7465.547287
5970.04371
5140.444407
6886.40596
5027.405192
9817.978592
9901.421879
8393.304338
7408.060179
6085.917728
4559.930852
4521.310741
12868.9766
12700.84159
9220.341319
9262.409976
9014.479966
5761.341656
6589.994033
7711.013344
5285.888052
5246.259947
6141.438382
3322.481305
7641.449239
5449.529443
7541.753381
7623.059564
6150.249387
8178.554847
8355.234543
7067.380299
9483.949365
6329.641126
6222.18008
9802.280485
10221.23337
7934.782927
9081.268803
7992.913713
9751.456822
5417.981181
8555.972794
9936.822697
7217.058001
9208.246473
3537.24805
9532.5325
8796.419151
7973.329654
9729.664258
5662.63646
2454.371395
4696.909397
204.1827424
7551.687672
3804.714933
10135.35382
9346.601853
4336.901208
7454.878184
8927.14331
8019.878611
6460.146434
10375.62578
7326.803273
7426.12644
6451.244926
9808.63519
6764.910078
8568.639993
9870.363864
10017.13416
10021.98603
6767.404723
9986.895496
5444.647665
7336.968974
4648.989045
7971.641898
7677.843355
7871.96576
8280.270643
7676.178149
8306.553257
5052.731964
7308.544015
5915.334023
7828.20306
9782.583062
9852.183432
7508.760562
9314.022073
8428.487241
5977.080665
6416.386572
175.7750399
208.5133594
6531.408511
9145.912321
8656.581296
1943.852054
7702.907735
10068.56734
9098.346259
8418.945951
6315.32233
6619.610085
2845.252291
7343.972192
8184.994719
6895.990151
7069.622226
5148.162817
8671.247501
8788.552259
10301.39911
8989.814754
9006.041033
8233.103908
7178.920788
7438.502773
8982.811348
6973.788416
7827.792668
9008.504762
5824.493477
8222.599556
7064.777322
8126.615194
5803.100855
8453.135823
7743.188076
8171.416294
6792.938177
7456.561516
2322.985109
5242.335324
11865.60457
8789.676088
7339.155259
6194.803969
10147.40024
714.2169844
8239.180911
9481.81961
8205.108106
8010.474868
10159.68195
8053.776836
6198.583171
4250.154779
6101.925525
7104.836531
6529.118331
9810.123437
9052.329252
7845.752456
9801.841121
8491.961394
5800.014162
5824.846721
5883.56136
8301.303711
7106.336336
10360.70812
7863.935862
9309.861016
8505.112729
9536.408537
7422.018104
7749.712376
8402.979306
8059.36767
10235.57811
9216.998397
8166.06709
6264.562321
2256.772635
6780.446031
173.0829519
157.366703
1071.626901
4855.383392
7580.23902
2991.568198
5400.121777
7637.437172
5803.104048
1759.163053
9908.372656
8066.651463
6944.265566
2589.990531
2869.592648
7406.55136
5920.725099
7731.792197
8597.135812
7154.111467
2818.400465
8735.033556
7392.991507
7675.764542
6649.918617
6779.419506
8357.431876
9978.033949
9616.402335
8039.908604
8166.236271
9214.042108
8848.159149
8261.759022
8376.273253
9571.757492
7269.785109
7961.998016
7087.903272
8357.957333
2333.879782
6003.106995
12576.39804
10990.03062
9795.156067
11469.3285
12309.32137
8096.334468
11532.5152
7540.299826
9306.359464
6684.731522
9090.69193
4728.251127
9402.511969
8641.247927
3512.888153
4997.494187
6981.684019
5432.615004
4955.818606
7396.99007
8137.634761
6115.325412
9642.22266
10237.52245
9050.112112
8872.396861
9993.955222
9646.761999
9139.882071
9400.759864
9238.746882
8358.982894
7580.340427
5492.314146
9805.459236
8865.739759
6790.333048
7328.120408
6033.186639
7268.540521
4312.394306
3539.884315
6876.500881
10794.0406
10531.6168
8555.957825
7902.229875
10871.08768
6366.869364
8647.789344
9984.22294
8407.907458
7857.291413
5691.215538
6991.860347
7620.666722
6544.626223
3446.297263
7391.426457
8658.307142
7800.503558
5556.985061
7518.732188
7893.587907
8888.009988
8723.363223
8719.369907
5508.143714
7480.169389
7706.359581
9678.631309
9274.437514
9165.372628
7066.823468
6901.474427
9325.53262
9103.753415
9471.109181
10180.92132
9676.018963
5547.471228
7001.108108
3058.846243
4687.043948
177.210781
199.3119414
2532.511903
9518.819749
9442.650945
7526.888759
9895.640422
9609.798053
10471.38107
8559.158832
5850.569409
6587.084722
8486.431118
6816.80854
6650.445045
9772.72827
8100.017289
8090.690609
9432.713762
7964.744098
8184.276086
6146.299742
7655.744407
6903.74343
7052.732655
9750.131471
8412.234548
7206.368421
9049.994543
8204.238317
7269.802619
8913.104585
7457.7253
10119.9017
6916.447448
9559.546737
8096.22445
7561.046695
6471.867644
6708.142981
6023.120265
9307.06887
175.9676363
189.7258575
1526.236586
7265.579818
196.4462898
4767.893813
9959.085021
8464.351881
9222.887384
1962.372155
5738.737104
9342.951566
5650.602697
5743.719512
7093.514323
4267.349475
7771.94826
9875.683201
8245.546169
7761.338027
6308.501622
7770.907906
8571.974212
8913.175108
7444.776029
9776.991581
8116.174967
8845.062728
8892.640722
8582.815333
7779.596922
8165.387509
8338.299896
10264.18291
9593.702948
9293.291781
7276.161026
6598.735469
8360.637277
5781.160575
2125.722361
3780.645259
8522.928254
1493.183706
217.8539913
6946.082923
345.1271316
7186.782842
6413.005346
9260.059063
7902.313393
5791.479854
7036.275285
5991.417821
5667.243579
7518.530383
8138.899429
6754.03881
7273.81638
10986.2347
10313.5219
8239.814299
8031.337
7599.472437
10064.51187
7625.266726
9879.319922
8363.305924
7893.877951
6670.035578
6064.790472
6786.537685
6257.369777
7114.815677
6794.945813
8466.550416
9473.479006
10178.4903
8827.879545
8948.034831
6609.203695
6498.487026
1643.621911
7654.228855
131.5465342
9460.984935
185.4309244
5091.132801
7774.96029
10395.30227
2836.03135
6145.696118
7730.823473
8721.48183
5599.250814
5771.220482
7912.93644
10160.48267
7102.609226
6588.515524
6939.84449
8992.076209
10040.24693
7414.986243
8064.934177
6657.892923
9461.814022
7761.640374
8044.510436
10051.46045
8309.234518
8748.636232
9241.763261
8759.178985
9178.230073
7493.761394
7981.596859
8885.901402
9620.434456
10898.73952
8999.435108
7498.936552
5407.137037
5741.687072
2142.981927
3354.402452
4287.075836
6162.035615
5587.07301
9480.128207
5843.761403
7196.773202
5133.665062
3747.338311
10097.45909
11225.64067
6905.537263
7252.630195
7895.847571
6890.23971
8823.509442
8598.700317
9936.391356
3179.351483
9392.127029
9000.245171
8354.919606
9016.570764
10367.28001
10621.53682
10495.98891
10536.69319
10878.64216
9467.402281
8788.570324
8151.557955
7732.92912
7504.633832
9280.286032
7188.133551
5573.710849
9211.720356
8077.953042
8866.781077
7122.398391
6911.316642
5642.521675
3958.040138
183.9858981
6915.945729
7596.623571
5390.148323
2471.3129
5334.220322
7733.791596
9473.762359
9848.159813
5832.871608
9113.878076
6019.389743
10102.0576
8231.138433
6937.135832
10263.48537
10251.48007
8784.586631
9651.074409
10782.31693
10358.28446
10070.61357
10365.89951
9287.303606
8149.882555
9640.277007
10261.48241
10267.72794
9348.117026
9744.426638
9288.925025
9728.179055
8275.745104
8464.553014
8750.694509
7784.13701
10010.84485
7705.921802
5714.569069
8041.343048
5475.583522
3486.280318
190.2931548
4190.395398
7331.256056
6414.01263
3932.388676
6099.874822
5688.500866
3482.119598
4192.895507
5595.587235
7534.823371
9017.97182
8984.474924
10185.99025
9411.00232
8300.272684
9535.152871
7075.31217
6999.09334
8351.653224
8081.657191
9209.951148
9456.690857
8979.959518
9994.462827
9961.144009
8132.415509
5786.83644
7871.379991
9356.575549
9245.262791
9469.393035
9163.360514
8413.461281
10121.67075
9202.967244
10162.07783
7441.21144
9653.385883
7218.707773
3669.955018
8920.097351
1728.799443
9667.325284
171.3284087
5695.613977
7625.424797
6144.92389
6132.401135
4121.214109
7499.346302
5714.553244
5721.587658
5090.536534
9820.753747
5201.052934
10165.04698
10479.52294
10865.89737
8667.443035
5716.801547
5900.578077
6334.871563
9068.096606
6421.075149
10197.62662
6298.580775
8341.766547
7065.750234
5274.066818
8267.789756
8284.083872
10077.06889
9850.896054
8094.239789
8959.984883
8337.636514
9466.236136
9663.89373
7384.03441
7539.840013
5378.139682
2820.003415
6063.211049
12200.95553
208.7086662
268.9001318
7072.686926
2830.534758
3289.959415
4096.876194
4517.363662
8396.046083
8747.277361
7725.072914
9594.02376
8988.167019
8341.66995
8218.459983
9202.463673
10073.04713
10076.90675
5656.785851
6159.775621
6502.765351
8310.110669
6988.203349
10566.52171
8863.38328
9373.051202
8463.436983
8172.424259
4491.095539
7957.017341
9327.352224
9038.704083
8471.696293
8143.572866
7868.545223
7537.513645
9262.862284
8416.1876
9467.776932
6006.844507
4183.804155
2777.553567
215.5803396
199.5613058
5483.412612
1004.23153
2721.252348
6768.105598
1982.86747
3591.643435
8123.329788
8231.267401
7152.503543
8586.838186
5490.402003
9127.270704
10368.65805
7667.674179
8377.613546
6712.955234
9614.574214
5334.296258
6810.759918
7727.292651
8813.91499
8529.577789
9178.815265
8012.428344
8766.200989
8341.531874
8085.687784
7500.790949
8863.739731
8711.274559
9087.064837
7945.041772
7569.631699
6683.050508
8836.516383
5974.943853
4310.531215
6794.613893
3850.002039
2854.430596
216.8051294
6716.166736
232.2844259
5809.295507
9411.543571
8938.598164
8481.829156
4838.03574
6919.712512
3357.37
4623.090319
9076.042759
9716.549855
9716.316278
10532.87369
8610.566278
10180.1355
7156.453227
9392.577326
7188.927117
5112.994964
9518.875057
9225.917831
8923.669858
7682.633602
8542.570679
9173.254248
8708.337429
8308.756348
8023.540312
7253.596853
9154.304779
8472.609961
8882.853706
7180.526707
4620.514803
6724.901759
7617.437196
7079.841889
3970.156276
8043.155242
9983.537023
8315.894635
12037.14342
12243.063
6996.614826
7030.481116
2522.61486
3695.74748
3780.817346
2772.864635
4270.249331
7415.970415
5291.070821
8146.38778
7931.833763
7758.461294
9369.913638
8968.093654
8757.193389
10067.56979
9142.287191
7422.855528
7580.566412
8002.512775
9936.023305
7292.752484
8439.434462
8236.149357
9774.121212
6151.819874
8932.380422
8901.908457
8276.886704
9237.708325
8216.69541
8627.440718
8502.426684
7510.09884
7868.914351
6368.425043
3328.728201
6858.509761
6073.173673
13303.10558
7830.081632
11009.95167
10975.16434
10578.09274
7400.440059
5883.36679
5548.831005
2727.582088
5851.68998
8303.852876
1450.559008
8022.508283
9263.415288
9428.674549
10611.91502
10503.97139
8253.166504
9523.505789
9765.745698
8347.725865
6749.318371
5972.252253
7984.169952
4450.845096
8055.094842
8971.942089
9534.061648
8291.232963
6953.359704
7372.409473
7413.976977
7880.588581
9417.864982
6971.164872
9330.169961
6693.717756
8825.079698
6629.612638
6025.715923
3877.871288
6201.903503
9115.186033
11320.45669
10502.35972
2452.045124
3369.047817
8321.793682
7097.415587
8083.692136
6278.910826
6927.417789
8344.184323
7469.679921
9054.313479
9804.031207
5641.206233
8534.682189
10317.80526
7538.165137
9342.813352
8488.377457
6642.308338
7284.80571
8411.128251
9237.588879
8456.887587
9234.585532
7085.30201
9043.411884
8421.747431
7708.057611
6726.888126
8343.68898
5222.505523
5846.346057
8452.065842
7470.586844
7389.384507
7201.525752
5455.477242
6072.878373
6984.113872
8252.341203
7632.738686
7738.8768
8624.178916
1901.691268
5216.017129
1555.986515
6642.038768
7529.657581
1012.822577
6823.807223
6236.292448
7010.64412
5333.421732
7589.063866
3887.626991
6072.493445
6387.66322
9711.099157
7487.391107
9739.611419
8677.035801
8225.446178
10487.18236
8918.540032
8034.688821
8641.267285
8122.799859
6989.89395
7038.2987
8114.947679
8363.23763
6649.260043
8743.775259
8593.1719
9377.150188
10154.40085
10045.17175
10524.9941
9753.281662
8531.143918
6413.47011
11405.72291
7710.480544
7506.677
256.3285602
273.5648836
4442.909364
9423.672398
1476.633792
9179.210692
8375.678044
4190.845126
5040.112983
3972.304891
9231.792083
7130.715003
7467.164105
8851.903429
5519.800708
10009.85134
8916.593738
10106.95607
8460.640982
9254.664901
7882.923087
9967.227838
6568.946024
9572.527328
8564.173392
9091.065437
7977.295112
9102.910268
9068.444615
8688.676076
8672.2252
8682.204376
10525.9783
8198.599468
8413.024922
9487.266276
7446.404779
8330.487511
4014.929273
5801.597918
10533.87008
275.0973862
279.8987107
275.5803388
5839.356973
6380.16552
7788.168342
5876.889001
2499.846778
5222.759067
2228.167216
3949.699606
2064.932604
5980.300513
6593.195544
6574.762987
6705.155896
6380.474654
8719.742259
10219.29537
9737.299662
9355.634446
9864.768628
9906.217527
9092.495808
6185.796132
5367.863275
9693.037522
6281.161285
8336.281427
9489.268966
8297.994651
8805.364261
7471.562299
9014.362862
8189.844424
8052.575473
7079.429422
8977.217855
6756.934163
4351.03141
8955.719173
11367.02706
208.2938147
1255.076
8672.656216
243.1615499
177.2506867
1449.342231
9231.515239
8519.283032
4510.862727
5106.378896
5330.849097
4324.73629
9086.656294
6338.562092
8575.118004
9250.131221
6714.419818
9012.961601
9662.72929
10016.92936
10044.2405
9669.174545
8590.148502
9512.76489
8581.708928
7073.733625
6515.701902
8045.226687
8911.977626
8796.969003
7387.509347
9008.015929
6414.347981
7247.359599
5366.236953
8759.027357
8488.787547
9141.678911
7044.972743
4354.685885
16194.24161
2629.766919
270.983855
8120.529592
4278.648544
4939.532572
9392.821927
7105.060065
9277.614755
3491.458904
7078.728226
4674.425522
3289.643544
6826.228441
9250.819423
7079.353043
8309.620011
7683.30984
4025.23925
8022.136428
8889.92551
8857.683959
9532.577808
9805.005518
8734.027834
9200.232309
9743.870738
9105.838119
10079.38731
8413.81941
7680.112363
8102.107567
8495.570558
8232.144282
10107.51583
8208.39281
6652.534257
8408.872121
7303.381727
8363.73141
6930.46388
4063.825478
7335.220557
132.8502945
189.0066568
8943.272195
10995.53509
9264.965537
8395.292005
10993.11944
6973.609774
10210.62007
10358.0529
5501.964473
7571.635744
7838.161786
7860.521148
6695.292798
7159.117081
9793.218634
7675.74037
7335.946249
5932.749309
8734.37
5906.116364
9735.436567
8879.658853
8548.556199
10029.75787
9646.727859
8279.385875
8853.222366
6364.939537
7259.527248
8507.966412
9046.717143
8227.605233
8097.001608
7162.205904
7607.942657
9757.869697
6738.530422
3237.20116
7054.557257
7288.064959
175.259459
212.3603068
1462.513014
2149.50449
725.2384934
8227.013735
8916.981835
7754.83912
9747.397695
10932.00968
8897.698033
7388.073345
9601.604768
8387.178633
8427.778496
3980.220778
8626.871111
9211.744323
9073.301695
7879.883286
10273.91011
8654.794194
8181.013678
8635.379617
8473.317296
8995.721473
7240.912174
9954.503162
8492.388367
9143.336551
7861.19718
4869.616455
5999.418823
8568.937897
8851.318487
9075.139188
8918.877887
8484.368974
8844.17086
7487.32198
4795.485798
5806.524424
170.348452
155.8034838
146.749383
1951.236445
6068.850218
8677.995675
7641.851293
4933.719157
10072.80702
10085.12131
10341.32026
10724.53186
8429.520878
6439.068277
7343.883507
6402.155581
7787.047832
7562.799393
6515.857194
4814.435231
6838.937786
8088.106414
8173.470874
7450.169405
7941.007546
8864.036802
7229.011998
7467.131543
9324.483997
7475.976783
7207.157806
6935.460722
7399.668047
9672.920129
9962.793207
6681.484096
8431.976392
7456.324896
10107.19879
8353.687132
5375.637439
7741.34945
162.7326963
186.1329691
9042.059839
8165.454746
4688.606532
5759.47388
9381.006586
8643.507438
7591.143324
8078.257258
4030.694177
5430.332651
8993.723169
6113.898208
9881.214614
8032.076034
7120.403036
7109.53085
8840.477219
6170.423085
6689.801483
9765.583069
10515.46461
8798.398059
8471.851526
8199.511453
8983.501109
8623.89434
10060.62986
7181.543728
9487.465252
9178.195323
8015.262654
5857.628768
10019.18173
8520.644186
8027.650781
6952.056584
8924.143315
7499.602648
6988.696982
3970.578409
10250.49861
9162.271634
11325.24631
11693.9745
9974.772556
6698.58133
7477.603757
5936.854373
5071.3938
5767.560434
8645.605927
4437.870446
5452.277456
4894.073178
8017.244196
5875.232077
7376.226588
9652.008987
8519.059487
10200.26906
10087.22435
8359.345733
8119.612489
8693.788912
7362.663347
6740.100519
7806.900246
3809.763567
7406.336654
9695.732569
8296.594711
8468.469204
9593.663456
9042.732761
8733.504909
6262.114702
5785.493569
7631.601871
7265.906442
5905.755212
5798.305609
2637.694009
9517.446012
12517.57823
12779.62827
12254.36932
10829.63785
12979.46416
6838.043924
4880.897154
5528.731233
8005.310733
10515.73646
8707.356268
5578.295824
6905.480405
9221.866907
6841.536481
8774.54352
10548.89161
10361.18466
8925.702643
5249.076107
5019.038896
8502.265513
8816.425089
9227.402424
9443.45248
7912.416775
5422.899396
6171.612155
7893.797215
9232.883869
10142.17698
8337.159556
7611.324181
7531.174694
7220.404825
5480.666256
5524.524626
6842.42111
3940.538166
5094.762012
3568.396195
4631.72266
10368.08313
6659.373519
7210.717004
9712.184838
7826.307409
4585.961704
2889.569346
4680.087893
6908.903129
6336.01054
7774.685611
3237.730838
6433.211679
8193.462136
2253.22749
8986.639495
7918.392324
9644.258805
5929.233362
4385.175051
5624.35622
6636.283107
7243.381291
5919.1901
9901.282076
8950.906563
5033.423418
5879.070894
6540.348616
7582.043687
7018.153403
6893.556214
5467.616594
9051.423937
7378.473393
5968.223012
2377.595664
6721.489652
1902.156128
2632.674928
9694.456465
13007.35588
10575.98919
12457.19283
12703.24983
11101.54655
8582.044284
9400.079364
4740.075844
9073.999231
8328.163102
9602.861729
7459.499886
8372.201411
7517.445931
6085.236199
3234.411126
5410.396182
2890.70596
5582.480946
5201.028897
1513.959823
2882.002216
5967.204914
2151.003741
3997.374741
5251.187999
4806.24143
4092.711161
4401.534734
4362.877403
5559.110506
4957.871605
5995.110245
4441.155165
5383.50195
3725.653552
1936.448529
3599.186124
2635.690674
2938.654343
4108.473481
2910.922592
7942.348081
9965.31865
10506.1576
11516.8225
11924.84562
11275.43499
12989.7154
11547.51568
12725.2785
12219.61087
11428.0356
12163.26049
10949.48588
10782.69886
9977.753226
9791.367848
10239.55524
8876.788975
7375.081258
10092.17347
9426.631481
8437.372504
7475.719522
6675.596028
6234.325766
7380.748461
9388.573512
8361.773275
3894.105242
6010.749531
5653.467502
4960.324238
5147.830566
4415.52773
6545.446318
4806.677874
7408.720753
7448.175308
7418.210204
9037.65963
2841.687758
2757.945253
5721.852941
9129.081972
8280.190422
11196.98797
9013.144224
9290.206779
7536.659426
11098.4951
10928.68793
11465.77065
10276.1274
9826.136214
10320.48008
10406.51693
10566.10964
10549.30744
10084.55472
10539.8182
10228.96745
9766.036845
10034.91888
9747.613579
9316.991397
9201.735307
9597.185913
10133.86671
9621.400701
9617.660514
8784.65005
6991.16563
7407.163941
7149.241117
9499.631077
8811.969346
9784.470631
9082.868056
8951.797082
9571.90791
7615.153019
8278.764449
2885.974683
3700.326172
4086.41687
6400.966785
9737.68601
10259.19161
7888.341875
8191.716165
9183.101491
9671.889499
11244.65124
12160.62121
9828.960311
8093.82497
10072.70357
10669.28356
10650.79975
8928.170345
10263.92809
9866.802666
9708.66923
9486.772586
9789.723435
9628.499437
9850.448083
9607.386036
9433.902145
9482.069678
9580.733684
9604.418688
9055.478361
9065.183278
9137.071945
9479.683041
9218.436323
9732.444802
9406.345137
9849.176034
8164.178749
10099.1759
10274.14578
8719.795368
6319.1563
5595.418637
5555.980373
8461.757083
6781.920892
9410.933305
8350.485941
6947.253948
8313.144167
8241.172982
9451.386064
7709.503426
8452.26152
7621.344566
7586.841975
9681.678736
9093.945638
8213.19746
8580.218614
9063.589945
9114.86477
9327.06106
8811.113858
9249.338452
8901.921025
9275.066467
8881.84686
9460.897108
9506.194977
9946.561997
9684.297033
8932.527017
9706.078217
9678.400513
9196.174695
9314.698058
9355.235326
8366.374122
9999.734812
9969.462336
9831.838972
8721.735162
6102.948546
2456.895435
4236.240805
7549.6543
7571.940885
7236.314981
8006.295465
8083.880582
7767.585755
9734.589314
10202.36185
9873.231802
8770.785087
7505.809303
7688.233482
8232.530476
8071.631311
8962.933127
8270.63134
7969.678646
7702.08692
8276.334035
8074.736578
8227.046424
7633.373665
9273.193601
9339.135057
8687.426841
9455.380897
9690.570845
9426.250353
9561.624757
9698.652628
9765.070611
9010.128427
9229.23153
10129.61113
10039.54753
10076.39299
8837.006347
9535.740835
8544.140138
6425.886239
3260.842834
4466.423326
6364.473401
6193.897522
6407.968841
8300.672749
7496.389804
7336.634593
8988.532208
7747.600974
7338.911773
7194.071247
8348.068191
6713.40448
6385.194005
7112.329353
6836.570255
6307.248638
6273.772187
5945.022393
6689.900052
7556.073415
8189.132279
6727.201063
7405.030975
8856.582192
9886.2493
9750.736715
9401.603737
9697.292977
9357.782773
10374.11508
10374.33904
10028.38382
9597.529055
8690.39581
10484.07533
10823.7543
9859.068328
8560.299369
7925.962368
4260.970158
2787.652021
4405.632503
5514.778018
6240.714941
7333.033894
7850.111492
8483.475685
8870.925661
9062.577025
9795.414486
8857.625145
7240.22236
6869.562651
6379.749381
5717.506149
5237.695145
3427.805394
6028.219836
5663.607192
8321.406273
9295.797871
9861.2636
9217.400977
9938.220296
10454.82504
9818.455274
10351.35394
11444.20732
9527.986834
8084.186367
9439.504252
9755.338347
9836.209984
4359.898169
2208.889493
5085.866962
4300.938535
4746.45294
5706.342456
5996.186378
6620.416002
6282.975909
6839.696676
6022.898234
6456.318158
6121.236706
5252.862292
4647.572438
3090.757128
4233.560892
8085.638679
7425.714629
9562.956383
9406.922009
10121.57785
9838.643923
10585.98262
9815.885041
9039.642085
10079.58941
10048.21276
9292.148597
8422.424055
6127.399275
3072.886181
4046.501444
4952.717058
5129.793372
5390.589727
6738.059416
5363.491582
4345.952455
6856.968646
5484.719831
4717.770652
5116.830787
3297.497153
1117.941898
1148.458827
1169.43914
1173.146222
1181.983328
1175.289303
1159.354426
1131.982398
3785.424844
5539.082332
10017.02477
9965.922023
10495.43887
9852.248888
9753.243839
11126.31776
9584.019344
9820.954056
9529.851926
7664.013239
6574.231432
2442.753618
3678.21916
4742.298859
5016.735487
5976.606026
5836.462531
6113.133735
5460.738639
5095.915924
4395.189832
3271.743848
1131.380468
1189.481062
1250.886183
1274.597397
1292.993386
1302.226289
1314.631689
1313.322013
1272.208439
1241.443111
1200.760969
1139.007775
5454.292154
7803.674277
11035.3744
7362.118724
10668.74587
7575.126928
8865.782519
10158.50427
9597.8729
8074.349641
6899.846107
2143.894607
3286.456021
3297.898183
5155.338834
5134.343125
4897.093115
5582.08539
5013.426039
4133.925907
3097.891789
1120.238481
1187.348283
1262.36791
1314.20836
1361.07472
1417.218285
1432.58586
1460.248162
1468.144812
1453.579984
1420.866424
1381.243925
1337.602504
1277.74615
1206.105036
1138.849481
6628.297991
7676.908267
12312.19831
8516.423812
10890.67683
10507.03083
7697.794644
10468.12481
9628.181531
8933.301332
2238.756792
3934.582021
4614.082526
4855.699166
5955.117701
6925.096399
5727.453092
4932.572784
3400.859078
1138.073185
1218.74292
1302.579076
1377.188403
1443.075188
1507.438934
1553.736957
1583.854113
1585.613729
1599.510899
1585.934429
1561.040234
1519.029497
1472.557006
1389.914382
1322.34843
1252.820885
1163.294671
9462.275503
8058.332085
10536.62818
5235.659222
9570.885286
9316.090156
10911.31242
10011.94041
8199.280364
1802.631116
2949.605635
3453.066653
3809.996202
4622.90503
3966.665697
3667.050429
3804.081756
2725.784051
1135.918327
1238.936641
1324.499882
1407.178007
1502.620455
1576.651848
1627.080108
1684.65552
1705.804041
1716.457758
1711.883559
1710.746331
1684.319735
1662.253406
1606.667607
1512.59819
1437.244449
1345.626858
1268.551748
1168.665273
9005.357486
10257.31543
9497.820009
12153.51668
11614.59355
10051.65239
9481.064024
8365.167472
5729.12206
1805.877067
3728.824283
3336.862285
4553.474313
3734.385916
3821.314544
3522.685209
2910.450233
1112.60934
1223.248088
1325.327316
1433.690163
1535.262629
1631.194835
1686.367255
1729.2834
1778.458211
1771.339375
1795.770512
1798.260674
1783.548842
1772.144543
1754.928476
1715.703355
1643.068729
1544.240352
1442.866322
1361.445044
1254.934364
1154.465716
207.9063804
4942.025349
10393.11269
6626.926219
9633.585387
9649.550452
6613.26269
6153.303621
1439.662535
2823.922866
3988.740826
4251.393036
4630.434811
4618.423225
4036.155784
2902.214929
1182.877758
1302.452054
1404.651656
1526.772207
1630.64336
1696.32023
1776.589444
1804.244817
1816.900171
1823.26012
1845.023719
1853.186413
1839.453253
1821.057269
1805.655637
1793.175509
1727.333327
1646.599942
1545.89415
1445.495144
1337.223448
1222.217881
4984.437033
9481.197389
11606.75774
7826.719018
5885.61535
5262.48253
8687.19294
2467.948581
1859.430634
1847.254413
2789.023986
3962.626882
4144.459175
3233.028494
2934.492118
1128.610355
1252.17834
1374.432454
1497.177814
1606.522493
1714.971455
1781.424784
1813.122149
1860.886345
1900.912233
1938.021085
1951.841412
1975.314
1951.817438
1904.171931
1863.699986
1834.024534
1804.335243
1737.354091
1661.578481
1541.389302
1421.606256
1300.166553
1173.103306
13022.59516
8830.969458
11634.01742
9652.690102
10208.60215
9643.438397
3159.303938
1504.553153
2282.592965
3621.001561
4594.595679
4133.131185
3643.013454
2971.349114
1187.392704
1312.177421
1446.74181
1577.849348
1680.476757
1762.65454
1801.244516
1853.703159
1939.077284
2056.909696
2152.951748
2199.963697
2214.777902
2159.685836
2055.873422
1953.372031
1889.305585
1832.269068
1789.538437
1734.557402
1609.098339
1488.437588
1363.71719
1240.178082
224.3064393
12196.57409
12135.53715
8735.296554
11293.02182
838.1402253
4426.711473
1699.587621
4139.111952
3699.708919
3817.158424
4710.340855
3373.306182
1114.821505
1237.471773
1356.199561
1485.989471
1639.215761
1736.636382
1793.032074
1842.22898
1941.732231
2111.763335
2311.756441
2476.352442
2552.75073
2556.797477
2476.815784
2310.962832
2123.123493
1968.929308
1870.310396
1819.764915
1772.514976
1664.57744
1549.63809
1405.601254
1296.127505
1158.647084
2084.792345
6369.522775
11096.18431
12078.45685
10003.00291
6550.410601
1864.837153
2946.725668