/*--------------------------------*- C++ -*----------------------------------*\
| =========                 |                                                 |
| \\      /  F ield         | OpenFOAM: The Open Source CFD Toolbox           |
|  \\    /   O peration     | Version:  v1706                                 |
|   \\  /    A nd           | Web:      www.OpenFOAM.com                      |
|    \\/     M anipulation  |                                                 |
\*---------------------------------------------------------------------------*/
FoamFile
{
    version     2.0;
    format      ascii;
    class       volScalarField;
    location    "3.996";
    object      Ttra_mixture;
}
// * * * * * * * * * * * * * * * * * * * * * * * * * * * * * * * * * * * * * //

dimensions      [0 0 0 1 0 0 0];


internalField   nonuniform List<scalar> 
50792
(
13574.9919
13328.6473
12682.12885
10142.47774
12029.19506
11805.81957
11444.03955
9321.208664
10069.58888
6965.469499
10077.0877
6733.074131
10928.71358
9112.549533
8130.738283
10013.42948
3992.543737
3422.847796
4757.320724
3076.385513
6570.720402
6514.550574
3063.988405
3889.69265
6419.307372
1161.055718
7328.704278
8129.735759
4357.388847
5121.223168
6656.754862
3854.396982
2035.308329
3988.73187
4975.066129
4167.630657
6212.408508
4322.038355
4070.845003
5375.822157
6191.816001
6292.578041
7386.100386
297.0195813
275.3529729
5559.719899
10559.95093
9460.273603
7483.225651
8784.302412
6068.169436
7540.148684
4671.634619
5593.718387
4672.273462
7160.797183
7994.835964
7413.085496
4513.824893
5740.97195
6212.346892
6095.296452
5879.252856
6367.109504
7344.424544
7707.857369
8965.15657
6693.532467
6621.496474
7908.32086
7544.364222
8350.048189
9001.767751
8973.17862
7989.316223
6407.540907
6241.824488
8805.747018
6922.877859
9466.741453
8998.359375
8756.381626
3850.92793
2534.136411
12355.90763
180.858864
3494.166977
4549.371308
4562.857679
6606.894367
10400.57812
3838.394186
3413.585236
7454.208702
7586.109868
2560.260858
8771.222785
6559.048987
7639.001281
3137.927151
5782.217531
9040.030745
9114.562716
8096.087578
7853.918843
6156.838182
8202.120187
8887.523797
5622.503499
7734.782526
7648.194607
3824.498225
8545.850382
8150.88558
6816.134092
7616.058422
6282.724007
7927.320489
8318.244653
7542.45291
7853.802673
9735.061754
9321.170162
7480.712405
7270.442049
6057.400513
10652.43549
11904.58339
7096.778762
5561.861704
7363.329964
914.1353345
4750.65912
2841.846197
5613.614844
8052.574063
10156.84762
10451.6475
9555.21265
5287.433944
7898.26357
9525.007548
9963.484874
8866.955515
7428.953794
10377.98092
10335.55116
9773.309903
6655.598326
9095.829829
9885.843995
8119.577626
8505.203918
8310.885323
9350.153475
9979.035414
9399.72254
9748.322911
8374.55205
7033.545626
8002.266443
6909.194598
6421.337874
6814.271215
8748.236023
6330.108368
5150.980866
4636.728619
11503.78453
10049.17015
5296.577544
6308.632915
2748.632694
3784.323076
11237.39558
5311.417114
7036.228958
5269.721454
6145.305308
1762.038049
6784.696144
4849.85471
6925.021271
7030.2635
8089.801069
8969.838814
9235.01841
9471.431609
7996.66392
10061.81794
9844.179707
8425.702961
9292.535584
9771.389286
8724.673099
7348.137234
8173.757312
10106.37664
10060.47417
7368.962083
9571.145737
7006.855853
7714.883662
7581.350038
7097.174126
9317.336457
9407.799975
6826.988631
8425.401687
6025.305202
6069.743881
4442.325357
11538.51035
6399.074323
7782.811158
4598.685481
4621.298021
8429.150121
7496.832125
3594.544095
3893.589804
9458.423336
5816.747392
7400.553443
5254.19924
6497.863482
5490.659589
3564.593932
8450.384402
7944.355569
7295.758896
8924.968216
9161.836047
8934.158144
5969.39044
7196.026825
6486.982864
8408.968042
9158.863019
6087.564546
10273.52334
7331.347547
8928.66146
7947.080278
7635.697908
9776.620182
7149.21898
7181.26985
6990.539547
7326.965292
7539.105399
3488.239523
5339.124107
174.0997433
4133.033681
185.3358479
188.020835
1050.731411
9477.104774
8210.512494
6883.790509
4882.260532
5830.490338
6516.30993
7979.560825
5072.045581
3606.548763
2785.889675
7113.452205
5796.758133
6138.778715
8605.014529
7866.891188
10067.79939
9657.680544
7181.352299
8803.062635
9236.19791
7756.982455
8658.170174
5970.320942
6682.535772
9423.384504
8466.409274
8046.73458
6468.857189
7784.861741
4877.374906
5458.693803
7492.10633
6988.859812
8814.229536
7880.140634
2152.412233
8105.289983
7306.328961
202.9698679
343.9789226
210.2780485
4307.652724
9889.213064
7490.943023
4486.040206
8283.11663
6048.67849
3213.388505
2400.072297
5121.737164
4008.789078
7273.004249
8786.488687
7681.410637
7198.75916
8565.435116
5757.059458
7594.355685
8455.704432
6383.644552
8927.726303
9182.570743
8894.925668
6859.776171
7910.434685
7728.972782
8098.331762
7326.688989
5735.587239
6930.767587
6927.536068
5017.765006
9526.431772
9561.964961
8709.408285
6946.44591
6674.419379
5391.032463
6227.581433
12322.60121
12553.28675
8381.542622
8831.056105
8396.282877
5043.586453
7445.386738
6832.72031
6476.018535
4537.269241
5653.612866
2713.411594
6807.819113
6113.742779
6752.855167
6698.889302
5159.982495
7822.659449
8196.977313
6202.651559
10335.00802
6483.557366
8037.413206
9328.300895
9827.431004
7709.379518
9035.37131
8461.394253
10656.61388
10748.14963
9802.001301
9710.229758
6979.125165
8749.318363
6692.01962
9963.818198
9825.513065
8654.594914
9451.787022
7982.46085
2689.493048
5470.299967
180.0495018
10967.83965
3186.990609
10248.54331
8546.455254
5285.313429
6675.854083
8122.636007
8093.650764
6400.985657
10196.98518
7205.974435
7603.87574
8294.777274
9244.717094
6806.698232
7999.560916
9750.576395
10100.69753
10175.90564
8224.192367
9913.697017
7074.7393
6679.51597
4259.884106
7772.771298
7649.899186
8425.178767
10057.07168
7182.773434
8602.222215
4741.143683
9377.908501
5982.272889
7542.912652
9541.885957
10179.55179
9007.768632
9046.040811
8894.116588
5667.356411
6964.898738
170.7986691
7552.767505
6293.334633
8936.626764
8302.821407
1888.624837
7434.49365
10699.00616
8231.229268
8846.509029
5533.837885
8385.297421
4293.68238
9172.655992
7807.149469
7747.271157
6596.131618
4843.06221
8391.272039
8063.23063
10185.0334
9188.437085
9084.028261
7378.742325
6483.768071
6936.30195
9080.365512
8109.764748
9083.673327
9013.943283
5936.785126
8139.83388
7488.319883
9331.995221
6568.851952
8093.95301
8481.357447
9093.084477
6957.495045
7794.997263
2438.550569
7687.838546
13135.77913
7973.33244
6293.690032
5237.915745
9696.801463
2417.73113
7593.609783
8824.83699
7151.894541
6831.312804
10093.58639
7500.727604
8447.898795
5156.050097
5170.370089
6160.671692
6762.457617
9672.050163
8486.767931
7500.548543
8942.335141
7850.808195
6074.574891
5167.89305
7222.386294
8230.316807
8365.131819
10155.20342
9458.991152
10064.67807
8970.894311
9794.011859
7506.552665
7571.912682
8662.86157
8058.171972
9740.759662
8893.494795
8416.670618
5682.278976
2716.675577
4855.084335
9780.847224
188.4177386
894.6004342
4054.453017
7670.2082
9050.126814
4608.382748
7182.156344
6628.666134
2026.116429
9320.163396
7429.69204
6268.186694
4532.306625
2503.742033
6576.058942
5931.318789
8514.356158
9159.060413
7614.619426
4847.526769
9215.752914
7059.180037
7578.434682
5741.460054
6812.711605
8178.883841
9763.097231
9151.118542
7695.952294
8070.309003
9196.05483
8509.98574
7955.444541
8285.190113
9706.583658
8294.908406
7846.37575
8432.196456
8069.969199
3377.41382
4178.718694
13120.32351
9425.992675
8108.964681
10456.43275
11365.10718
10293.63136
11470.38075
10161.71391
8595.749952
6929.076752
9954.097824
4021.74913
9527.611051
7874.3102
5924.890231
4488.467934
6670.79073
7765.660955
5579.957034
6341.249043
8149.744017
8580.968633
9556.770918
9706.067216
9127.903751
8764.058553
9867.374034
9679.446151
8982.123349
9088.504381
9679.971592
9667.835402
6821.79222
7425.155681
10501.8571
10001.55906
8416.596089
8987.518539
7216.030456
7426.809436
4220.565566
3993.31143
4738.977923
8658.035444
9333.304468
7129.776531
6596.607161
10281.49068
9469.959383
7739.442781
9389.967576
8491.330021
7661.03897
4837.976872
7332.912415
7100.480456
6986.319902
3323.651374
7405.358901
9323.410182
7949.211838
4944.021861
7959.155784
8805.260202
9647.441989
9282.224905
10023.96125
6756.936602
7830.441208
8396.111175
9816.166561
8963.935993
8902.861601
9805.590124
8827.810553
10237.61744
8973.584381
9909.017481
10507.75424
10050.19229
7824.451281
7090.312224
2920.597121
4814.246291
168.5012478
195.8485866
2163.359297
8949.138239
8547.928349
7027.962386
9265.77622
8781.006793
10042.34169
8271.737987
5486.500259
5638.640202
8998.678013
6954.781332
7900.092561
9337.725379
8834.015199
7973.98481
9975.705984
7414.990778
8777.037254
7264.152065
9226.165594
7203.843972
7427.161831
9715.938257
8493.419926
7519.43718
9234.412987
7916.700849
7253.880945
8781.749403
9057.938762
9820.341848
6805.0812
9623.688801
7488.417908
8672.147309
7065.164935
7103.889689
5834.579536
8385.079352
171.4449182
184.1060572
1238.816011
6050.852856
184.6169573
5066.466381
8801.219065
7955.712641
10076.67377
1801.631423
4873.848208
8872.616827
6757.353394
8880.82204
8035.986129
6912.247323
8189.824209
10312.17189
8743.94743
6827.151809
6973.640155
7709.040948
9036.049967
8997.630829
6867.355514
9533.469788
7989.337803
8978.66034
8399.942377
7969.463691
7578.276706
8534.371031
8555.874415
9880.594969
9491.335665
8914.168512
7043.002488
7263.219239
9032.741157
6985.778066
2396.322219
3953.418571
7632.410462
1142.196038
207.5452094
5451.027389
2839.63206
6129.528049
5738.353005
9679.878495
7023.491807
5653.880588
6670.414594
7139.518414
5849.932879
6652.167332
8956.204777
7080.213532
8811.159528
11187.78646
10202.18513
7793.317019
8319.884787
8199.649152
10270.68353
9238.347791
9648.549747
9757.89598
7708.513253
8413.968303
6776.450681
7895.105858
6919.50972
6428.114995
6085.307259
7970.427209
9526.632715
10254.59763
8167.75082
8508.45225
8754.831551
7100.108602
1460.587291
8600.508767
119.6964477
8244.298015
1847.602668
4300.43856
7998.732498
11435.55749
2914.282866
5391.918352
7221.664362
8471.697616
5738.290023
8418.681026
9267.699895
9726.851825
6605.52727
8111.777815
9302.630112
9384.938943
9761.64444
7575.919396
7807.06326
8029.758628
10299.09959
8848.533761
7371.914076
9759.579911
8554.595919
8709.976466
9420.661465
9269.995164
9966.432659
7871.307114
7966.518523
8917.591426
9460.462413
10914.58802
8881.392094
6977.649908
6715.471292
6190.751063
2060.396319
3944.9227
3550.503412
4921.932807
7562.617822
9122.794487
8091.450399
7618.179703
4005.341802
2959.62106
10204.3869
10900.52283
6382.189677
7474.758285
7915.055342
6802.555386
8518.117633
8007.259384
9919.109767
4835.473533
9564.172727
8838.194913
8115.479723
9787.946094
10666.18478
10277.14597
10047.96181
10336.12687
10695.12327
9593.879493
9099.903132
8952.350996
8267.841386
8178.474365
9543.230077
7242.365196
5085.96641
9083.90063
8396.292852
8380.395535
6495.679104
6935.773154
5122.857116
4101.368813
188.3606613
7894.653995
6537.296013
9571.178691
5134.843931
4818.190807
7885.323276
9160.758193
8690.817874
4879.278483
8488.905252
5524.274207
10167.36583
7423.564958
7978.876484
9984.333864
9592.686481
8797.964535
9667.275592
10682.47452
10207.67627
10463.51731
9762.959832
9644.7075
7856.353982
9535.124381
9908.40889
10198.10944
9601.762758
10056.68266
8853.663271
9406.233706
8406.094246
8353.919568
8760.933776
7140.547709
9538.43026
7003.296928
5255.185122
8849.092677
5817.620278
4682.918055
202.6706546
11608.73112
7103.9493
8385.170294
10375.32462
9412.93488
5324.063165
4861.914251
5644.93962
6033.180853
6807.634339
8341.359542
8340.46701
10272.48729
8880.051135
8379.965893
10165.68158
7080.904345
8258.534662
8064.154621
7884.659794
9152.943021
10055.51439
8307.778302
9616.273706
9570.985721
8775.53979
7420.362574
7710.468897
9250.887279
9639.895462
10185.36775
9658.601262
8684.549011
10554.67961
9426.104796
10243.70229
8223.841881
9527.759568
7903.335648
3660.892141
8777.97186
1685.414104
8916.200141
182.2393463
10596.72125
8654.751358
6406.608376
8968.380999
4368.946777
6979.242076
9231.050735
4877.896736
5625.456272
9336.736571
7051.013259
9658.394329
9644.80818
10732.94881
9258.291503
5093.794285
5308.227684
6609.879997
9146.990335
7690.507629
9961.379702
6629.577228
8526.264013
7496.700684
4869.272603
7687.350201
8727.679969
10184.72328
10388.97039
8730.045958
10031.86126
7790.397037
9723.344618
9552.938473
8348.907458
7028.068606
5839.425779
3238.946743
5850.517996
12572.74785
4928.719621
8931.816042
6440.256195
2342.17875
2729.297787
3994.945133
8734.168432
8626.758214
8224.420311
8271.708518
9021.401443
8730.328118
9413.327036
7471.906902
8644.802946
10710.40388
9390.307758
5472.719442
5495.015395
6240.142101
8044.040671
6297.558471
10605.10357
9695.442727
10157.02377
8482.784559
7603.135482
5295.444376
7223.090818
10169.44335
9854.908164
10236.45281
7915.978523
7198.963232
7907.945111
9355.022097
9098.559191
9303.668006
6867.972138
4107.58422
1900.152472
12868.11065
10553.84493
4688.603645
819.3753301
2181.18344
5764.2251
3905.230459
5852.374557
7831.267607
8984.794469
6839.796407
8878.70006
7642.270284
9003.563696
9815.486223
8675.50674
8391.48888
6644.203676
9050.815539
4997.414718
7174.404096
7795.862415
8032.28201
8494.070529
9412.918223
8576.668586
8654.438537
9571.314402
7787.091173
9431.585756
9293.500072
8326.885659
9721.343122
9321.051681
8668.408715
6912.983066
8889.650882
6672.792682
6383.036998
7539.732168
4082.575918
1673.476859
9108.23303
5936.345047
233.4424884
5276.180472
8705.47901
10526.39373
7388.229273
7429.499737
6439.202429
2848.249518
5917.59269
9599.08009
10028.02929
10211.26221
10324.90285
10411.60484
9521.500035
6618.054917
8637.075178
7759.311124
4816.07953
9894.130228
8778.67938
8336.695634
8105.277898
9167.713604
9889.390057
8503.526013
8387.711894
8904.638054
7194.110153
9081.427935
8477.961302
9711.816615
8699.021623
4419.457271
6980.315015
7851.954956
8130.417208
5773.799345
7617.116996
7257.465825
6641.487959
12085.9756
11838.50077
5530.622754
6176.123134
2209.826006
3053.533701
3029.509167
2494.750181
6223.431606
6948.94311
6573.496557
8596.270952
8160.600464
7084.141682
9160.689678
8999.797757
8749.007227
10277.23531
9560.171109
6809.821224
7187.321228
7313.329034
9469.039249
8021.181821
9038.019588
8164.882802
9411.289268
7602.932464
9306.595982
8991.837567
9009.108469
9203.131008
8688.958813
9178.037793
8478.830572
9908.44039
7313.601183
6342.678606
3742.361187
6315.312604
5664.52429
13305.16263
6974.378359
10980.60493
10094.83898
10004.62259
6227.698904
4709.48656
4426.529159
2121.024699
4935.403214
7187.729977
3454.476043
8387.814923
8492.231777
8872.794673
10051.01718
10054.82732
7994.80532
9222.565236
10076.56858
8304.024472
7947.001271
5290.174502
7657.012909
5367.22237
9074.685721
9380.522333
9959.882521
8895.513406
7196.374425
7586.286252
6884.830744
9529.21591
9176.179648
8589.807304
9394.803288
6239.190128
8790.021013
7428.507926
5728.478254
3741.679049
4339.779846
10432.62216
11357.76085
9779.686641
1915.921228
2652.67365
7230.810334
6931.798253
8464.423566
6390.640069
6065.661599
7546.562034
9072.242946
8815.251328
9139.237127
7511.663185
8466.844014
10149.29706
8730.313937
10419.29596
9195.837888
7178.949732
7485.879933
9506.593792
9860.063035
9092.933369
9831.743049
9015.158944
9345.954884
8604.054462
7726.238867
8885.569685
8198.756256
5757.691775
5434.017257
8429.477121
7112.155182
6883.638859
7246.033548
7789.823103
6477.674102
6151.987557
8222.943545
11568.63463
11386.66253
8915.59576
1422.353608
4864.161338
6620.759618
8503.395601
8342.217228
1971.313174
5965.461136
6168.762524
8140.461593
5421.755163
7279.385397
3665.008325
7277.160817
6565.499617
10133.01419
7572.318726
9041.87566
8454.344415
8073.816324
10496.77969
9774.281559
10386.4657
8850.880717
7853.490439
7020.377408
6681.730443
7791.374624
7843.567221
7832.45591
8842.706092
8610.358072
8759.04707
9643.752359
9752.940405
10134.79541
10217.24333
7846.395089
6096.296223
6176.298285
12090.05694
6339.354667
221.9512244
243.0364273
4845.587275
10440.67539
6615.922099
10407.52435
7546.586888
4168.305343
5317.310149
3931.104386
8810.371729
7533.268313
7751.258136
9120.733744
4968.304813
9565.93737
8234.718081
10240.114
8811.027987
9078.440252
7856.864905
10713.04189
8433.810536
10521.93744
8353.15343
8956.083194
7681.727084
10325.52466
8743.163074
8145.95683
9119.907046
9204.558601
9652.698685
8295.472881
8705.901154
10149.68023
8147.790756
8105.532232
3729.383488
5644.756453
13027.55707
1221.531266
286.7438534
278.8950533
6581.713567
5905.557222
7734.469904
5716.436629
5568.688144
7413.956565
5520.22682
3555.197054
1821.912987
7699.673727
9243.674324
6101.162795
6296.338179
6270.924807
8284.536912
10265.48876
9637.217558
10145.15413
10842.14109
10046.99053
9836.712177
7196.930683
8320.963356
9276.610666
6775.767775
8370.959712
9282.242243
8105.664882
9411.553471
6819.4972
8913.751209
8350.565654
8850.252787
8313.162316
9532.893907
6977.851679
5891.770519
10265.26989
11053.02473
8749.564879
1037.137847
7744.389279
4598.489754
183.535135
1294.885691
8913.245606
10158.4252
6840.799805
6249.978629
5491.832566
4586.894721
9004.938432
5742.082708
7894.95255
9173.267726
6924.954272
8843.071368
9434.29324
9896.217721
10860.56139
9884.746944
8747.987101
9187.672585
7704.264971
7279.661424
7965.559247
7891.205957
8587.647321
9338.697469
8926.336532
8899.503598
7162.717335
7900.391861
7743.428992
9851.835002
8704.515214
8761.681845
7428.332998
4078.436722
10441.53978
2358.492739
10367.43943
7539.993457
5576.419789
4303.406777
8804.290491
7759.726954
10167.41296
6802.709634
7135.785
5141.840678
4127.59271
6911.073271
8777.223837
6621.457015
7456.274896
9181.621939
5084.496982
8061.740524
8316.471428
8155.482716
9328.641724
9248.643566
7848.10228
9291.75035
9177.780739
8635.5497
10275.71809
8073.631678
7618.131903
7775.956395
8973.067495
8158.099805
9860.708193
8066.536834
7031.068731
9565.515395
7118.181811
8348.226096
6700.582792
3863.369431
7968.184067
150.5072531
8612.355066
7795.633856
11059.43445
8263.671471
7645.058534
10370.57888
7361.613842
11194.65623
10288.71055
5714.849896
7979.210234
8921.275686
8649.32062
8505.450743
7831.771346
10374.8741
8358.614769
6829.367213
5356.55519
8330.315805
6876.824277
9534.671837
8551.74479
8697.763077
9833.264262
9203.255085
7780.369994
9350.749395
6563.627277
8187.633908
8802.238136
9051.288396
7670.645357
7529.665883
7755.006881
9112.942571
9582.308723
6460.323662
5719.309087
6499.115918
7354.475772
170.349126
3886.165838
5327.565185
1875.114225
646.7626267
7432.505179
8308.055288
7915.246949
10613.16483
10935.8508
10071.76214
7599.417859
8768.549609
7009.989694
7316.077211
3583.709926
8934.164469
8475.245741
8813.798444
7926.035549
10088.41963
8532.740084
7884.289912
8152.67724
7996.10463
9079.315524
6734.858987
9859.419017
9631.799517
8913.782692
8395.833573
6988.526472
8004.463835
8577.517429
8146.097033
8816.271319
8920.351455
9138.732406
8621.126579
8061.605893
5185.95557
4894.59249
159.7414674
139.1121419
142.3597295
1468.029477
4869.947807
7580.130605
6641.963602
7421.373535
9552.008608
10221.49536
11233.86668
10296.11099
7622.263239
5841.512844
6561.78864
6303.565287
8540.706287
8757.294969
6204.54524
4284.234724
6181.946754
7100.289867
8283.748941
8020.419969
7250.674797
8165.021345
7872.1193
7831.732344
9641.116101
6928.535506
8131.853908
7352.795796
6652.951183
10000.27638
10344.6412
7699.847225
8829.190706
8378.301233
9911.066049
8411.39078
4995.433687
5571.18277
173.9948745
188.2723254
8114.283058
7331.142113
6687.815743
5105.013628
8621.891851
9408.483299
8378.404734
9151.86253
7146.608225
4846.426561
9055.607191
6123.776417
9538.044641
8694.709631
6344.854849
8558.968681
8976.208878
6599.70937
8785.446375
9465.355386
10593.18884
8264.425338
8401.589628
10219.42195
8817.66599
7626.096115
9905.752185
7159.809149
9291.975435
8709.582633
9250.893635
8672.004896
10165.47387
8153.655842
7491.108006
7504.329211
8521.887029
7096.619625
6363.742283
4248.479481
10058.68454
8482.255925
10967.27557
11305.40832
9193.242321
8195.043013
6697.662208
7002.760944
6035.461443
6549.33703
8265.689323
4374.92873
4971.392141
5128.593217
8677.451391
5548.41301
7056.98331
9274.030726
7586.529441
10259.42409
9597.50787
7320.589686
8568.438812
9114.171073
7271.386021
9309.901874
7432.033417
4107.225612
7531.560371
9488.186051
9743.839858
9609.185465
10123.20766
9342.233902
9817.272131
6541.04829
6044.469303
7328.721738
7388.670239
5698.848518
5894.869852
3639.976289
11134.61282
12708.42779
12930.95975
11439.19115
9659.467592
12809.95948
6821.208593
7552.838639
5048.443909
7063.179649
10252.01916
8010.030448
6682.254621
8250.546465
8949.87659
7422.346387
8240.018603
10525.5591
10227.67606
9209.274872
5256.701602
4432.717023
7723.073028
9563.64358
8956.442781
8926.283587
7414.938177
5289.479707
5861.444788
8531.10749
9101.347743
10070.78506
8185.892926
8160.802589
8950.297331
6703.398263
7718.981854
6264.003882
6800.584023
3894.635926
5174.892349
4891.245213
3362.661688
8820.474085
5482.832472
6026.150342
9380.655801
6838.70958
3773.550873
2452.623001
3976.831225
6076.037119
5652.261233
8218.685434
4755.450487
8118.482007
7769.338817
4078.533643
8512.290743
8062.752954
9344.384601
5930.916337
4809.653603
5366.521887
7033.402839
7801.570192
7770.471282
10049.85874
9104.634238
4915.531527
5492.824186
6573.090159
7828.611209
6379.944378
6321.839672
7263.561198
9077.819157
8447.196979
7793.641307
3250.915977
7255.641221
2340.546847
2243.917441
9714.821458
12787.89358
11502.81907
12986.84082
13237.2186
11106.84706
9408.985205
9750.38481
4075.067105
9231.880871
9641.138921
9075.212991
8390.52413
8093.014637
6813.582067
5610.237651
2949.258641
4872.14134
2744.320128
5138.002191
5141.067627
1972.641235
5663.364234
6445.289848
4852.547607
6616.441954
4686.839347
4182.244858
3579.806262
4236.297881
3717.331131
4992.871542
4496.652874
5270.054225
4373.65707
5015.625251
4565.589726
6377.522774
3295.847882
2541.180983
2805.838698
3792.813266
2334.375718
5670.226032
8740.532569
9007.825225
10358.37489
11940.99444
11865.96952
13192.28018
12094.21218
12453.56772
12381.72143
11912.94468
12111.62521
11153.6534
11432.61098
10880.74012
10718.25784
10413.3464
9178.976514
8383.533641
10234.24286
9172.552148
8566.311409
7911.823149
7085.409417
8016.737257
9323.383408
9882.335417
8081.527354
3564.179531
5833.144628
5636.126112
5590.194128
5348.267529
5037.755001
6228.238313
4865.388819
7225.265275
6924.37144
7202.376826
8510.975854
2869.24015
3098.695943
6124.586451
8009.977704
8700.96365
10904.65424
8620.432561
9460.124633
7284.791796
10466.60589
9459.367641
11514.40452
10392.405
9549.579612
10657.97933
10956.97219
10754.75402
11008.1801
10503.63375
10748.26878
10196.31586
9846.404239
10113.23423
9940.685542
9771.874833
9476.050449
9783.707875
10309.67379
10161.53035
9922.284465
9265.416331
8286.784251
7487.293481
7479.830783
9521.182285
8551.295058
9911.982976
8828.201083
8807.267258
9392.492647
9017.851259
8332.857543
4399.253034
3102.888199
4274.931497
6868.09966
10297.6043
10863.91303
8743.807903
7738.036587
9329.406349
9366.744371
10279.93041
11502.42468
9488.892698
7845.360682
10449.31772
11122.46353
11131.75771
9249.817172
9988.531928
10143.06312
10301.14447
10026.53093
10263.19289
10198.34242
10233.98021
10117.60114
9959.967278
9890.886455
10197.17647
10004.86009
9333.80173
9500.109846
8957.450311
9468.359435
9459.183575
10000.6711
10095.96769
10135.93006
8601.017176
9967.157694
10211.4757
8732.23891
6681.477541
4658.681808
5614.549134
8507.557375
7124.833638
9501.776324
9182.655683
7620.180656
8433.371333
7917.439801
9394.00417
8449.554612
8728.640309
8331.33721
8197.184774
10021.87866
9368.784775
8293.044154
8701.673913
9317.170002
9439.029578
9643.701376
9053.474545
9456.616524
9016.918096
9503.499305
9413.998015
9378.092305
9609.656482
10210.32714
9807.484558
9464.853279
9792.698907
9812.219498
9040.197558
8991.393257
9296.328692
8476.394176
9951.010378
9765.647194
10041.77712
9330.388234
5714.877657
2807.730752
3891.366644
6755.72293
7300.883235
7134.970105
7692.273356
7289.002734
7811.935752
8964.088205
9114.865929
9117.952924
8665.904799
7834.518214
7696.9054
8700.55815
8109.730803
8802.319143
8338.612412
8251.789258
8061.259713
8603.144235
8342.034776
8749.071608
8102.350169
9591.913857
9716.41952
9727.472453
9766.184247
10003.01938
9799.352113
10073.19496
9842.466608
9529.584155
9152.004751
9015.325042
9982.933417
10316.66038
10367.33277
9311.085828
9934.282649
9008.951318
6232.382546
2827.191904
4146.56594
6103.303692
5926.95476
6307.827173
8282.720034
6695.875202
7917.423953
8436.72707
8198.65171
7849.73107
7092.57901
7978.551665
6872.7289
6482.918152
7034.786393
6552.254996
5982.453231
6215.385598
5923.557645
7021.833313
7747.014084
8448.410817
6891.895062
7250.90995
9237.725057
9849.307855
9741.975881
9644.080279
10082.65118
10734.49787
10428.21996
10526.88956
10224.42884
9463.277854
8541.501915
10534.76625
10734.82608
9583.66439
7965.785928
7764.130665
5401.223171
2774.768907
4082.613329
5187.224095
6266.699776
6899.221648
7493.911073
7307.602421
9121.458038
8577.316645
9732.790999
8946.403486
7701.31958
7076.572757
6564.714753
5952.796765
5615.563052
3401.371058
6600.475273
6583.4502
8640.783687
9715.355918
9021.155901
9834.552232
10147.61796
10898.88247
10320.13753
10386.01752
11404.62464
9727.310461
9594.099928
9536.801478
9857.700994
9556.581695
5909.346528
2434.991853
4998.754496
4554.018251
4911.264921
6032.106946
6757.313696
6911.828238
6379.343987
6651.988088
5920.778985
6526.03426
6212.434093
5302.258519
4606.07144
3033.234596
4507.011921
6434.222173
6843.700727
9724.461603
10288.31117
10146.42512
10203.83648
10718.38218
9830.880475
8571.036969
9662.437029
10350.52911
9802.719615
8906.429567
5700.171929
2507.712829
4267.670829
4690.442505
5085.353426
5963.897237
7167.553744
5620.490373
4394.901811
6612.237839
5761.525186
4882.579158
5019.890406
3251.407412
1115.291261
1149.410505
1173.411605
1174.931785
1181.905226
1176.307952
1158.351823
1128.901973
4226.356324
5787.5921
10721.07209
10312.0824
11214.25013
9495.152893
9251.252753
11128.59219
9350.976844
9656.319169
8946.397515
7090.538592
6152.73055
1840.184305
3342.560602
4593.695577
5093.270945
6059.743552
6047.761787
6450.409257
5689.46976
5220.444737
4523.880993
3461.895361
1131.457033
1189.700014
1252.233174
1277.494898
1298.502708
1305.43281
1313.934025
1314.058946
1279.529081
1243.458672
1201.88002
1140.22357
5555.201969
7923.517561
11234.31537
7346.144129
10673.68076
8352.077094
10450.00849
10101.77263
9221.31123
8016.945087
6307.834591
1944.169618
3458.110839
3822.635304
5302.580288
5463.06907
4846.129657
4786.757418
4686.512129
3988.831076
3009.971845
1116.932304
1186.494084
1264.81778
1317.554659
1364.184404
1420.304948
1440.69938
1458.874373
1468.07772
1455.160231
1424.504422
1388.777291
1340.073525
1277.336
1206.365335
1141.818585
8577.471177
9716.075739
12598.16978
7705.822996
10866.30578
9914.972002
7228.579714
10774.81757
9574.239915
8964.988107
2734.442954
4227.747488
4777.245049
4765.893507
5822.072933
6620.748485
4870.215928
4555.205926
3330.739443
1138.100525
1220.07261
1305.608412
1384.420272
1448.102205
1505.952267
1562.44609
1591.183452
1592.307119
1600.245772
1589.442335
1567.074158
1532.218725
1479.474572
1389.254932
1322.00365
1248.942143
1163.333338
9462.275503
8058.332085
10918.54176
4569.237811
9317.694821
10286.08175
10769.00912
10100.21604
7701.687924
2024.613199
2920.26077
3577.689485
3810.209553
5066.392484
4080.517978
3607.871086
3661.500328
2789.40035
1138.372743
1244.765211
1325.585211
1407.235911
1507.104788
1577.524874
1626.989985
1693.365098
1709.515803
1716.492741
1710.602778
1715.262546
1691.449732
1666.959821
1610.633363
1513.60404
1440.893142
1344.546725
1271.691696
1170.907113
10641.91227
11122.98856
8584.616905
11768.57048
11311.68171
9997.233018
10256.47276
9267.811056
5402.140457
2309.374901
4199.053866
3912.981597
5528.805625
4600.797977
4648.273523
3939.094325
3252.457024
1117.408287
1225.066542
1329.554779
1438.57327
1535.794709
1630.782262
1690.14314
1728.770096
1777.0408
1772.364079
1796.919742
1803.377885
1789.284296
1772.018465
1761.96765
1718.159569
1644.545926
1543.954212
1445.935257
1358.559925
1256.757574
1158.251196
199.3600764
4425.901069
10785.45561
9999.854537
9853.588012
9720.149211
5938.873718
6114.269031
1662.416392
3274.68316
4528.843653
4737.964703
5059.951492
4837.489826
4185.543525
2928.062988
1183.9028
1303.342499
1410.617331
1527.730132
1636.881671
1708.099762
1777.055111
1807.907883
1818.897342
1830.794077
1847.945857
1855.588608
1841.147003
1821.274952
1811.06061
1792.193352
1726.727181
1650.819633
1550.856092
1449.027636
1345.276429
1222.916567
4984.437033
10015.81534
11610.62732
7095.000254
4928.190785
4533.516577
8962.813605
2489.887418
1449.809272
1825.710512
2806.626001
3922.442245
4133.022453
3414.26447
2921.543176
1129.09741
1253.410857
1377.333464
1504.695133
1614.424598
1718.132798
1783.674134
1815.48946
1864.261354
1898.809172
1942.873053
1956.233854
1979.647842
1957.392958
1908.081463
1857.959955
1837.787057
1807.958044
1742.867792
1666.607903
1547.134627
1427.735553
1301.155053
1171.229964
13200.30853
8721.884427
11796.01378
8106.354664
10817.92969
9026.937582
2401.800724
1866.609339
2172.307978
3348.048743
4261.633149
3873.288782
3470.362055
2891.985225
1183.169487
1314.256449
1450.249231
1584.870255
1683.183711
1764.695131
1802.928106
1854.175099
1944.58555
2060.21206
2157.358389
2207.952214
2216.287462
2162.150835
2056.57267
1955.205579
1888.371118
1835.581262
1790.374063
1734.962432
1613.311965
1492.791058
1364.798924
1242.440572
193.883163
12665.94523
11244.1287
7822.389806
10887.58186
5543.608242
3665.018177
2202.903368
4298.125799
3673.003749
4225.226349
4491.273259
3247.016958
1113.221743
1234.507511
1355.14534
1494.085491
1647.938621
1735.547823
1797.484418
1844.24247
1945.060348
2115.363872
2314.788286
2481.202891
2560.874274
2557.726952
2480.663152
2315.405014
2124.24588
1966.773014
1872.888455
1823.757863
1773.371219
1670.895192
1557.097449
1411.653682
1299.514679
1159.508986
3279.975314
8096.854592
10809.5547
11518.37613
9075.320167
5731.177284
2184.03178
3367.237891