/*--------------------------------*- C++ -*----------------------------------*\
| =========                 |                                                 |
| \\      /  F ield         | OpenFOAM: The Open Source CFD Toolbox           |
|  \\    /   O peration     | Version:  v1706                                 |
|   \\  /    A nd           | Web:      www.OpenFOAM.com                      |
|    \\/     M anipulation  |                                                 |
\*---------------------------------------------------------------------------*/
FoamFile
{
    version     2.0;
    format      ascii;
    class       volScalarField;
    location    "3.996";
    object      Tvib_O2;
}
// * * * * * * * * * * * * * * * * * * * * * * * * * * * * * * * * * * * * * //

dimensions      [0 0 0 1 0 0 0];


internalField   nonuniform List<scalar> 
50792
(
1084.906671
0
0
0
0
0
0
0
0
0
1609.080787
1144.847035
0
743.9292979
0
650.618367
916.5417322
693.3154965
727.2637506
709.8684039
694.8816224
700.1614859
680.0055655
680.4077011
686.9520471
689.1561411
572.7790922
1277.549988
1090.39751
914.2801908
1066.94739
671.2785942
686.17383
718.3484655
774.318811
743.2061114
667.9506025
684.4998984
808.3691542
889.2736294
770.3101116
653.1858081
2960.085871
0
0
0
0
0
1299.292436
730.1412274
865.798145
740.394181
887.6810355
716.5686975
723.3305158
994.0170412
762.9799684
709.6170964
419.3388557
0
0
0
0
0
1338.072228
0
0
0
0
0
0
689.3080429
0
946.7179013
722.352078
738.1336922
0
702.0866049
673.0378643
1190.279142
1345.779004
1041.372619
599.6320998
0
0
0
0
0
0
0
0
0
0
739.8855707
597.7683428
743.1254153
733.0666184
704.5445325
735.1509747
0
0
0
0
0
745.7642954
1519.191786
0
0
0
0
0
946.2593884
0
0
0
1053.793702
548.4244203
0
0
0
839.1278768
630.3650607
864.701381
437.2893619
462.605741
0
0
0
0
0
0
0
0
0
675.1339486
771.251806
1081.226824
1044.513309
0
0
1102.131662
0
0
0
0
0
0
0
0
0
0
0
1077.757704
0
0
0
0
939.6587999
0
0
0
714.3193669
768.8930649
793.0589457
703.2781327
718.0058843
661.7757214
647.8065152
0
0
0
0
0
0
2922.173389
571.6567082
720.718375
0
0
0
0
0
0
694.257922
539.3077848
0
0
0
0
0
0
0
0
0
0
0
635.7330905
1130.240965
547.9172806
581.8045563
578.6307024
645.6301939
604.3266657
669.7102044
612.4726389
0
0
0
0
443.4314068
0
0
0
0
0
0
0
807.3786688
0
0
0
0
0
0
0
0
719.503799
809.5383839
0
0
0
0
0
398.561721
0
0
0
0
722.9869695
653.4311261
496.439756
0
0
0
0
0
0
0
0
0
868.3899779
747.8701711
0
0
0
0
0
0
1541.583719
775.1585264
0
0
0
0
0
0
0
0
0
421.0711133
575.2206368
0
0
0
0
954.8602782
426.7679783
0
0
0
0
967.5623112
522.6606299
0
0
0
0
0
0
0
0
0
0
0
0
0
0
0
0
0
1056.727509
567.4135127
0
758.4011932
765.0206224
745.0546581
713.4447313
698.18977
467.3545564
0
0
0
915.6389524
0
0
0
0
0
563.6425079
1466.495958
493.7467106
820.6319857
0
0
0
0
0
0
0
376.0666539
781.3281605
690.8489641
0
0
0
0
0
0
0
0
0
0
0
0
0
0
0
0
0
0
619.607823
694.416794
686.6394333
683.9704961
642.9589511
0
0
0
0
0
0
0
0
1046.753417
0
946.7699866
0
0
0
751.8196096
0
1115.874228
1158.054793
487.993742
0
684.267015
891.7742636
484.5008612
0
0
0
0
0
0
0
0
0
0
0
0
0
0
0
0
0
0
0
0
0
0
0
0
0
0
0
659.9787619
531.9090303
0
0
0
0
1745.885351
0
0
0
0
0
1031.228242
747.6573325
664.2280032
0
0
0
0
0
0
0
0
0
0
0
0
0
0
0
0
0
0
0
0
0
0
0
0
0
0
0
0
750.3536517
0
1034.069205
729.5827972
0
845.6843039
1843.475479
0
0
652.5195543
654.1595923
590.6300802
0
0
0
0
0
0
0
0
0
0
0
0
0
0
0
0
0
0
0
0
0
0
0
0
0
0
0
0
0
0
643.9983665
0
0
616.8770412
642.72556
0
406.9834896
667.2945942
635.9623352
424.4713236
731.1191138
0
0
0
0
0
0
0
0
0
0
0
0
0
0
0
0
0
0
0
0
0
1567.408106
0
0
0
0
0
0
0
0
0
0
0
383.6386949
512.1030523
369.6132955
595.9811759
576.1491456
0
0
0
738.5241917
476.5724063
0
0
2095.933282
0
0
0
0
0
0
913.9006455
522.2781623
0
0
0
0
0
0
0
0
0
1786.160655
0
0
0
0
0
0
349.6991286
0
0
696.2461364
513.826901
0
0
976.5708827
666.5897915
0
0
0
0
0
0
0
0
2686.900645
0
0
0
0
0
0
1221.594874
0
0
0
0
0
0
0
0
0
1552.186423
1541.691545
0
0
0
0
0
639.9056325
904.6886171
0
0
0
628.5436353
726.953323
487.5051899
1014.680571
1493.335823
1434.342791
1039.34544
0
0
0
0
0
0
0
0
0
0
0
0
0
0
0
950.4225656
707.9430683
0
0
0
0
0
0
1784.588551
767.0484465
903.1943423
0
0
912.5957006
863.8712341
492.1523355
0
0
0
0
924.6524935
0
1708.969567
1585.262306
0
0
626.1661393
615.4973674
0
0
526.492058
739.8927061
0
0
0
0
0
0
0
0
0
875.5336548
1160.462106
0
0
0
0
1052.433444
0
0
0
1077.958152
0
0
0
0
0
836.1200728
516.0825862
0
0
870.5220415
511.0398658
0
582.89041
623.8405371
596.9080876
678.4481186
664.0540376
483.1783356
0
623.0959197
886.5197363
775.336807
0
1181.03307
0
0
0
0
0
0
0
1315.034444
0
0
0
0
0
0
0
0
589.1036531
1121.123046
0
0
0
0
0
1270.464598
798.2091408
0
0
0
0
0
778.5345692
0
0
0
668.6737751
1539.921304
0
0
1396.72181
1359.994148
0
0
0
0
0
0
0
0
0
0
0
0
0
0
0
0
0
0
1040.0849
0
1079.335412
0
0
743.4821563
0
0
0
0
0
0
0
0
836.2388863
727.5853481
750.0952878
566.0220116
884.4060106
0
0
0
802.2248399
1014.669982
0
0
0
0
0
0
0
0
0
0
0
0
0
0
0
0
0
0
1184.197169
0
492.5922964
390.2612171
885.5019482
412.0707121
0
0
0
0
0
0
0
0
0
752.8387198
554.5100061
0
0
2238.03721
2081.413037
0
0
630.3020604
729.3406935
2630.027727
0
0
0
0
0
0
0
0
0
0
0
0
0
0
0
0
0
0
723.2958848
719.3044013
428.4674444
0
0
0
0
765.7417156
727.3071068
753.2590156
887.5169338
390.4177354
0
0
0
0
0
0
0
0
0
0
1775.046699
0
0
0
0
0
0
0
0
0
0
0
0
0
0
0
0
0
0
0
0
0
0
0
0
0
0
955.6651567
634.08798
1268.270513
0
1151.400359
807.3266989
376.653633
924.6945987
973.9956936
526.1917227
496.439756
0
0
0
974.6987542
0
0
0
0
0
0
0
0
0
0
0
1186.113656
0
0
0
0
0
0
0
0
533.835317
662.5182135
829.1147307
879.3031656
1219.589435
2478.632288
596.4764433
556.8713411
792.9953807
553.1109917
0
0
0
0
996.8684876
592.4632067
506.4715097
0
0
0
0
0
0
2490.117451
0
0
0
0
0
0
0
0
0
0
0
0
0
0
0
715.5689484
578.1092434
659.1175617
954.202242
0
0
0
0
1580.810136
2530.381641
1343.880574
806.2906575
0
0
0
0
0
881.8662039
0
0
0
0
1341.676512
664.6825267
0
0
775.8759277
0
0
0
0
0
0
0
837.7950348
0
0
0
611.337816
674.3369554
648.3891011
690.1597972
971.0415319
1022.933783
1226.138354
1017.667975
0
0
0
0
960.9382322
0
2372.373496
2280.092349
0
0
804.9607822
0
0
1097.468968
0
0
1052.368441
1312.055998
0
0
0
0
1115.162562
0
0
0
0
0
0
0
1399.040364
0
0
0
540.1072628
919.0559139
1508.406425
335.2837747
0
0
0
0
0
0
0
0
0
1348.303367
711.9919644
1369.102068
3220.373414
803.5926163
0
0
1669.122008
602.6277851
1103.603277
0
0
0
0
0
0
0
2387.299471
0
0
0
0
0
0
0
0
0
0
0
0
0
1232.975381
0
0
0
0
0
730.3885007
1198.032446
520.7303387
0
595.4002256
1264.968646
0
0
0
2645.372815
1596.910806
0
1000.801341
0
593.416863
0
0
1662.408678
0
745.9654921
0
0
2990.682982
0
0
0
0
0
0
0
0
0
0
0
0
557.3242687
821.0417616
831.2500079
653.6841967
503.1637198
0
0
562.4317113
1090.82459
0
0
666.7568194
577.1383616
666.5897915
627.6358432
553.8073921
773.7703444
1504.52025
0
0
416.2436357
997.3706519
0
1366.379637
638.4267418
501.8720885
758.3237198
0
0
2550.158294
1991.000844
0
0
0
0
0
0
0
0
0
0
0
0
0
0
0
0
0
0
927.6330411
0
0
651.1027422
405.3560323
620.3363236
1169.057863
622.9169309
0
0
0
0
893.9737109
1860.969099
0
0
0
0
820.8669322
0
0
0
0
2120.219162
0
0
0
0
0
0
0
0
0
0
0
0
0
0
0
0
0
0
0
0
880.3385381
569.9542569
0
0
841.6818778
0
0
0
679.7799186
866.2441186
1147.779305
941.4517566
757.8903036
0
0
0
0
0
0
0
0
2735.021097
0
0
0
0
0
0
0
0
0
0
0
0
0
870.049521
805.3709869
695.6107477
704.1308001
679.2818226
910.6681196
1224.510087
848.9119614
0
951.5380619
457.3918667
0
0
0
774.0750456
1210.690198
504.5846897
0
394.610647
613.8953895
0
0
0
0
0
0
0
0
2050.312206
847.2959942
0
0
0
0
0
0
0
0
0
0
0
0
782.0819877
0
0
0
0
0
0
893.6455745
657.1092878
698.0704791
881.3986745
1705.294597
922.6602323
766.5328696
1398.765392
694.1163202
537.8224937
0
0
0
0
573.1787261
0
0
0
0
1683.492898
0
0
2243.875311
0
0
0
0
0
0
0
688.1401777
0
0
0
739.5244969
387.9206759
0
0
1253.107195
828.2409004
0
0
528.4983915
694.4883487
691.2662666
0
0
0
320.0732578
1241.641405
394.686387
536.6436808
781.6957469
0
0
870.3366762
666.4257213
0
0
0
0
0
1703.860506
0
2808.239372
0
0
0
0
0
0
0
1162.81382
0
0
0
0
0
0
860.164997
1524.779925
1139.068969
0
0
0
0
0
0
484.8477017
0
891.1274958
808.4755285
780.2498971
470.7172005
0
0
0
0
0
0
0
0
1035.685868
662.1539814
0
0
2084.452261
0
0
0
0
0
0
0
1206.760133
866.5333536
1310.942571
0
0
0
0
0
0
538.4691911
0
614.5088617
0
0
667.9886166
752.1315579
651.7470832
0
0
716.8274768
0
0
0
0
0
0
0
714.4045963
0
0
1043.008061
0
1065.567409
2053.499695
2209.682071
1986.997958
0
0
0
0
0
0
957.454648
517.3157191
0
0
0
0
0
0
0
0
0
927.1925471
855.6788888
754.6913846
575.5114997
0
0
495.72995
1035.014187
349.3582714
0
0
0
0
0
0
510.6678055
686.2422926
743.3083721
1009.528016
576.1767245
588.8422697
0
0
969.9713237
865.1935715
816.9000835
794.8376714
744.0578582
744.0578582
651.4554866
696.0314752
634.7589523
920.6311306
630.5700544
625.7931388
624.3659939
627.134882
615.7941964
701.8591783
587.7104676
340.1012665
734.6069527
706.1025375
481.4754215
0
0
0
0
0
821.002469
1095.306123
950.5534548
570.8565992
587.5180038
605.1339553
560.6470367
540.9179326
640.7739218
0
0
619.3637456
606.0155369
0
0
0
0
0
0
0
0
0
0
0
1130.854143
0
0
0
770.4623094
871.9441572
720.413744
771.1005646
988.2162645
702.4116198
0
0
0
582.8855791
793.4905467
1142.19578
785.7751032
0
0
0
496.4665514
853.1885199
631.3374119
538.2261153
565.3935843
768.2989837
1107.575245
0
0
0
0
0
0
0
0
0
0
0
0
0
0
1283.131005
1294.342932
0
0
0
631.8078774
0
0
0
0
0
0
0
0
320.1918164
0
0
0
0
0
0
0
0
0
0
0
1138.914648
662.1041435
580.9287791
0
0
0
0
0
0
0
0
0
0
685.7883059
0
0
739.0009954
0
0
0
0
0
0
606.367416
0
0
0
0
0
0
0
1204.775059
0
0
1378.857538
0
0
0
681.7677817
377.2214364
0
0
1153.337368
0
505.5078987
0
1032.541309
0
0
0
0
0
0
0
1380.388463
713.5362547
0
0
0
0
0
0
0
0
0
0
0
0
0
999.7265686
990.3232843
770.6720286
1843.788677
1410.742419
1228.078539
1881.630335
1075.930258
0
0
0
0
0
0
0
1265.158541
0
0
0
950.6047525
0
0
0
0
0
0
0
0
0
0
0
989.1785543
0
0
0
0
0
0
0
0
0
0
0
0
748.7822595
1248.921678
626.9857225
0
0
0
0
0
0
0
0
0
0
0
0
0
0
0
0
0
1099.222046
0
0
0
938.098809
0
0
0
0
805.1338305
1298.617958
0
0
0
0
926.5128511
502.2677585
0
0
0
0
0
0
0
0
0
740.9201526
627.0464672
0
0
0
0
0
0
0
508.159556
0
0
0
0
0
0
1367.057389
919.3472859
0
0
715.1561427
618.6240701
0
481.2280334
803.2933961
567.6732525
1590.776774
1040.822565
426.7902678
0
0
823.5198065
945.5607282
0
0
0
0
759.5480011
0
0
805.3294143
953.1851733
1219.039474
0
842.0620441
536.3395623
513.5554097
0
0
0
0
0
0
0
0
0
0
0
3031.245039
1337.554897
494.831658
0
0
942.1502269
0
479.4612024
900.742028
559.7274535
634.0524166
683.2559463
0
0
0
1229.241037
475.5338967
937.0458745
485.3651217
0
0
0
0
908.9218057
798.6196422
0
0
0
814.6907973
412.9290739
714.007381
0
968.7142089
936.0059423
629.4471665
601.98735
1046.255169
680.4969166
0
0
467.7294468
652.0821211
796.2690154
744.9177943
1257.560097
1477.911576
0
928.9046476
373.8389823
0
642.0125748
646.823881
0
0
0
0
659.9787619
996.7681519
846.794955
658.5150147
427.7014412
0
0
0
0
629.7211527
0
0
0
0
698.1967793
1215.68861
290.9607342
878.6771071
985.5134448
772.1732048
815.5241355
948.0391981
799.4345955
0
0
825.4639629
755.8388445
0
1651.068371
1204.059545
1037.023869
2271.649535
877.1900561
0
564.8750857
743.7886218
1067.354962
934.8095301
1147.334942
769.2073521
859.4559755
557.7841016
1137.248986
806.7243498
907.464541
482.0845296
736.574463
823.3538925
648.0086865
1070.815232
0
636.0134282
0
544.2996963
661.1770465
806.2489311
903.0292369
1061.784885
625.2405016
866.9048013
0
0
852.3587811
0
876.9142761
853.3921025
780.951649
1091.89244
477.1553692
1008.598474
1339.951995
916.6018709
931.3710249
1020.033819
503.6884828
0
1253.117108
890.3985621
1022.625423
902.6792154
1175.10423
559.7999403
745.2895761
1122.687836
627.3806611
1086.839892
1344.849033
854.5565646
642.3054563
811.462406
1073.446253
1782.702008
1205.25557
1035.333513
777.8867974
629.701389
404.0932681
0
687.7065788
0
0
0
790.3097499
926.2971501
920.2882013
0
0
0
0
619.5336556
638.3639613
568.2201836
0
1093.258884
814.2727112
840.1665107
788.029882
0
880.7522625
815.8304289
1186.356647
971.5041694
975.5263562
448.6821408
471.981978
1036.035466
974.9511309
840.8387941
1073.749528
1029.234867
0
817.6925855
572.4262024
822.3381701
0
0
0
0
0
0
0
0
0
0
0
476.7738804
0
742.7229253
1130.52562
1084.906671
920.438722
678.7644415
1359.095656
1101.348447
696.8052002
904.4875655
979.2623568
961.2120043
919.2992669
835.3787883
699.3563445
0
0
1363.224128
0
0
0
0
0
0
0
0
911.0656035
0
0
0
0
0
925.4097057
1396.279072
1086.819194
644.0397822
729.6014831
1107.462822
1288.053354
850.4885194
913.8596692
832.626429
1071.139637
1007.962627
1007.808415
997.1688806
1000.950684
978.2472542
971.1939512
993.1985313
979.1001647
2381.694091
0
0
0
0
0
0
0
0
0
0
0
0
0
909.4189086
0
965.4993026
941.7956504
961.7605673
1360.714263
976.7424348
1317.449186
951.7178981
1106.664881
989.9471332
991.190429
983.5529271
992.9239446
993.4173528
977.9060066
967.2038616
995.0253777
979.124504
938.5054132
977.4215293
993.9594516
0
0
0
0
0
0
0
0
0
0
0
994.8821015
1473.406278
957.8839351
1057.114077
723.6906486
918.5875125
703.9471598
1372.445488
821.0573845
989.6111322
974.8844197
980.97624
962.7811999
959.5378141
970.3131813
982.1483743
993.7838589
984.4652243
955.5465628
969.9982649
993.0869103
991.1521631
976.4064703
982.437959
1001.798607
1022.803187
0
0
0
0
0
0
0
913.8223371
604.0127313
0
0
702.5278273
567.4053994
566.1255384
468.7769754
802.8365154
738.2861426
1096.224197
819.6357147
992.505559
977.980022
950.8622457
977.4297216
935.9658629
968.1815854
978.2155567
999.2277994
985.1336888
977.5102108
950.0231991
959.676371
986.7251927
977.6813441
974.3378549
983.8930056
1003.98419
1025.326535
0
0
0
0
0
0
0
0
0
1223.51963
1533.186825
1061.741918
866.9215194
0
644.4658023
453.519093
953.6286355
851.0801481
990.0013551
987.777086
991.6630043
958.5983201
957.786925
966.3388355
958.4725769
902.9621113
936.6988331
962.0098727
967.6535208
920.1196151
942.4455027
966.4184363
959.8611513
974.7983877
1001.032632
978.5208653
1007.589997
994.2580296
0
0
0
0
0
0
0
0
0
819.6042443
1772.034005
756.7925992
739.0545363
993.1531495
723.680766
794.4280858
1456.372584
1014.596383
989.426431
977.6458487
946.3513272
949.8514434
944.624846
950.8402344
954.1347913
926.2300448
923.8329264
922.5846254
920.5927181
942.0532161
952.2448937
949.1134627
903.6446165
952.189989
945.8136336
966.7206518
997.8423403
990.7387517
1002.999255
0
0
0
0
0
0
0
0
1004.882049
2233.677846
1247.556844
938.1185112
1491.953322
1555.372604
1121.071717
1275.036313
960.5868408
979.5015776
993.9555325
948.8592309
930.953743
943.248656
942.4047507
963.323586
931.5653489
966.6318619
943.8313678
934.26326
965.5563038
929.1703109
954.7379796
960.2865328
956.6702676
933.3476425
968.3307374
974.7013921
986.7369232
995.019464
0
0
1627.360006
0
0
0
0
0
0
594.5126204
1088.871487
741.2748054
710.568204
805.4593405
1355.754173
1018.333321
973.5436689
949.2167454
962.5256659
933.414785
926.3412116
942.7991454
935.5984516
934.6511846
930.3303833
920.4238487
922.438109
911.9451238
910.3624058
925.07474
926.1066633
961.3702632
942.0426263
962.2467962
958.3791104
983.3730243
974.7627496
954.2464384
966.3686999
0
1616.991822
0
0
0
0
0
1518.670142
1005.631835
573.9124401
767.6914061
757.6362023
731.5745127
1165.547801
998.4007365
973.9628127
952.7840271
942.2521203
941.517882
919.6796588
908.7578324
926.6674266
926.8553388
931.0404081
915.3513704
896.3493096
908.9266337
901.2044265
918.0056246
926.7602785
939.0408708
944.0782033
959.5935781
951.639495
958.628846
956.5293686
982.0302401
996.7119972
0
0
0
0
0
0
0
874.5108176
986.4683309
1071.563603
1010.152276
747.1211287
716.2791225
996.9212165
1011.799559
982.4553185
939.0048191
949.6690747
966.2286593
939.9623926
924.5520738
929.1790054
915.7658271
892.8301914
892.5738375
874.0296051
878.5564396
883.241643
893.4889097
899.521818
922.8861885
914.0440363
929.2312641
942.8805192
974.9082757
972.029222
1010.927607
1001.480625
990.7926887
4164.629415
2895.196247
0
0
0
0
1647.176277
0
1021.519747
588.068965
788.4110463
789.8039615
978.2817087
1007.892779
964.2927829
962.4241755
952.3613264
936.6666245
925.7068088
938.5986972
901.5509935
893.9679256
876.6981652
856.7700848
841.0837514
852.2248469
855.472106
869.6820263
900.5514425
912.8358746
933.4533341
916.0054399
952.7679055
946.3344707
964.9203555
982.5940532
971.1124294
1017.825426
0
0
0
0
0
0
1018.580894
1716.866429
935.7295139
962.1793122
868.3500912
713.8173638
990.5844221
982.1657044
960.6968759
952.8762129
958.1891
936.4193548
920.0430518
902.1129305
912.5533674
876.3923942
853.9837259
856.0052673
825.8666227
824.1211506
855.758801
874.3268539
884.1693053
901.6197839
914.1729279
916.1449246
980.955694
957.9066335
981.7778512
986.4311855
971.3528042
1014.788816
0
0
0
0
1635.581802
0
709.2493439
688.3431778
1209.440798
1239.118155
1380.216023
996.2030065
977.351477
987.0860071
987.6849632
974.8154278
927.2499936
938.9047501
903.135997
909.9940726
896.7004709
869.7219743
841.2029435
834.3488984
825.5455931
823.2049774
826.4420374
850.9664826
877.7880952
896.6606252
903.400113
925.4934288
932.3453575
943.2181941
967.004398
980.9633529
1013.874339
984.5816923
0
0
0
0
777.7340412
2216.664568
1223.826651
650.1534634
1815.930271
1739.100761
1431.125533
1258.080239
968.9526756
967.0688491
978.3962894
947.7336099
943.3489588
951.9793448
942.0686173
900.8115386
902.8675877
884.490836
852.8714286
816.6033629
821.7402341
826.9175165
835.1380266
862.0943074
885.7400987
901.3922108
925.6483279
941.6508531
952.9233559
976.6310524
978.2527507
1015.116005
1002.80407
1015.091542
0
0
0
0
0
0
1458.304098
1381.848669
2056.612967
932.2765512
1218.380441
1026.315743
1009.254357
985.7624919
980.4619082
953.061407
974.760326
944.7713323
947.7116395
929.0944498
889.5347646
881.8592702
851.454803
836.1057088
824.5998502
837.0251944
846.6012195
856.2994785
890.8763434
913.2120661
902.8623071
961.3259988
956.6465903
963.8416682
971.1401556
983.6449782
1012.642115
1005.302645
0
0
0
0
0
0
1264.876112
1335.686261
1192.140625
942.640277
1855.768543
1386.686806
985.4685388
954.3418067
993.7527258
962.2680181
924.2070984
951.4912793
931.321271
928.9315328
906.7961008
886.4589573
873.0160065
849.426056
847.8934106
852.1235247
854.6052339
870.6766032
900.1354614
924.2249735
913.9081291
935.4762058
940.50964
944.5181953
981.1780514
993.2434362
1000.875199
1001.354531
0
0
0
0
0
0
1246.958761
543.2910332
0
949.4473265
1131.761062
1154.47112
1021.541411
993.7381439
943.7938245
969.5156428
961.6054222
940.5182413
943.5655917
946.9675107
933.8728174
899.8958842
886.7427402
892.8751699
879.2829522
875.4928922
876.823908
897.6869763
906.1626836
911.9403033
945.2921614
938.0930932
960.6455074
961.9622266
966.2328812
969.9792938
978.5131483
986.1190262
0
0
0
0
0
0
840.7131699
818.9389513
874.0433425
1486.699258
1122.376615
926.0204019
1025.162328
991.0456929
1007.944307
982.6739569
981.9721914
954.1076201
963.4054277
951.5720737
911.1442581
903.2809433
925.1146098
895.2564221
883.5481254
884.067599
897.6067971
907.1632243
935.3664304
944.1171896
920.961449
953.5400839
961.1208345
971.9301639
978.8680201
980.0837754
1003.681862
0
0
0
0
0
0
0
0
741.8703908
702.4750928
807.9513982
1188.850853
988.6176891
865.5909391
1004.25341
1004.553433
970.6146994
983.2389769
967.6038786
938.845671
896.7006944
935.1805727
935.4368464
925.9880098
918.3159755
896.8282922
909.0383231
917.7819928
928.1574679
925.6243283
940.5422997
963.6573943
972.2249169
945.0918044
977.158152
990.4849949
960.9213718
983.0440331
0
0
0
0
0
0
0
865.6516771
1141.520208
1536.820042
1303.046189
816.8098141
1096.69553
1168.877542
1056.224983
993.3153984
970.1093661
988.8100345
981.7914733
928.7113804
952.2457141
951.3231413
943.337466
933.42004
931.344185
906.4636855
906.341581
943.2192213
914.8278933
945.3868079
946.1792554
956.9368924
949.9101161
982.9253751
977.8922306
945.3328005
989.5873312
0
0
0
0
0
0
0
0
2329.233042
1157.335125
876.6546506
0
0
1033.457222
1093.105692
636.4249042
976.9766249
981.8369123
962.7637709
940.06224
945.8007521
992.754195
961.2997509
945.0163942
948.7502463
909.7446237
916.237699
921.9243427
947.545418
924.5582699
959.876637
971.1266366
951.6003845
943.4268369
981.0051071
976.9928732
981.8543877
1008.564796
0
0
0
0
0
0
0
0
0
388.8488183
713.7257017
602.8820974
694.167761
1182.681766
1152.920383
1039.24223
1475.027528
1000.803039
994.1420874
965.819905
969.701644
962.0082126
980.5491067
919.8847508
955.7505605
941.5845804
981.8191813
967.5664565
960.7480552
966.9778418
971.722248
972.3523631
964.1262558
971.0777238
977.3198502
1003.960481
969.0496925
0
0
0
0
0
0
0
0
0
0
1310.682201
1231.293951
971.225319
1508.531979
1272.521304
1604.998813
1354.434418
876.8245991
993.9476519
974.1452262
979.0343672
984.8777222
1001.330897
953.081696
935.9812735
967.9921435
965.3212214
954.6125267
973.1121112
974.9069533
992.4687143
969.7499245
990.9929502
1020.646459
1008.430868
1032.610423
0
0
0
1068.488836
4450.201972
2622.642039
0
0
0
1720.801505
969.0201825
0
1201.54194
1298.738992
1494.946096
948.6465875
908.4048003
767.2034033
856.1225033
983.8543154
991.0298126
979.8476177
987.8534309
981.6873206
964.6890266
983.1831093
927.6348093
956.5059862
993.6843538
992.9903051
987.587475
1001.566522
986.523914
989.6166241
1015.220389
404.8703584
0
0
0
0
0
0
0
1795.010689
1260.976786
1827.655613
705.0638341
0
0
994.6709377
714.381124
574.0977177
835.7521761
942.9455103
825.1858276
877.7799519
987.6844237
997.5115784
986.7157132
990.5781542
970.8766637
996.6931959
960.1380371
979.9922542
978.3999091
981.5589662
989.1187298
992.0126891
0
1991.491944
439.5216524
0
0
0
0
0
0
0
0
1822.145741
1078.30081
396.8735829
0
1170.332376
643.0097501
1171.640648
1138.746892
982.050707
1096.788355
770.7227755
734.3050609
1170.533788
993.996382
1016.852805
996.0403692
993.2991065
959.4484228
993.4673005
993.7358032
979.134157
0
1180.231175
0
0
1581.331699
0
741.7070196
737.9035009
0
0
0
0
0
884.4561992
581.2090481
1346.791793
1367.480636
332.138634
875.2243633
850.8414828
924.7160374
980.342148
571.3370025
814.3389579
834.6309872
995.8605284
932.5469353
769.3885107
0
0
835.0894202
676.7272858
0
1342.346825
696.2564095
716.2170891
605.7208593
0
382.0257011
786.3420287
762.96316
658.8279661
0
0
1746.704303
1448.056382
848.0685216
0
952.854206
1008.568489
1638.507637
946.312668
611.7177411
648.3823431
536.2198075
973.1839327
770.3493284
923.7016556
772.1473083
993.4507829
0
2424.327304
471.3648085
1523.952737
1426.440044
1169.157417
1453.26047
1098.109332
869.755558
740.1773867
1297.530091
762.3257971
766.1901014
0
0
0
0
1202.2442
850.5905586
1142.603482
0
642.2572895
858.5974858
877.9263055
749.2847582
826.4692962
769.4126868
1007.908637
1401.516358
617.2562193
287.3918786
674.0790209
699.6756856
666.5187841
822.9597032
1452.089604
1391.365082
899.7334586
576.2035604
615.5984681
0
1017.314302
1165.580985
1182.926466
1510.81939
733.7726089
858.1077225
592.4221713
694.9834753
662.1801114
916.771643
1736.097415
937.8351169
0
412.9504376
0
0
783.7124226
0
1034.103761
1514.698663
1569.349763
0
0
845.7740214
0
0
0
719.7534458
1164.166455
1075.403645
411.7679225
729.8007186
936.1919847
0
0
0
982.2951425
1368.463798
953.9432782
999.9412181
919.8292968
1013.920345
962.7810251
960.2610448
580.3551576
575.5250494
0
461.2281576
0
0
948.7812245
0
0
862.2363597
1371.807813
741.8835739
731.8037176
0
0
0
1167.530301
1082.628181
1177.11498
0
837.3966002
0
0
0
0
675.5264754
741.6862624
792.673877
716.9286114
357.5529735
890.3100402
964.7507252
608.3172335
978.3807421
994.3541388
588.2239157
1132.013827
1294.170436
1058.967912
758.085662
1770.16379
0
0
971.5990988
0
0
0
0
536.5433824
0
0
0
811.5272849
543.2073963
571.0463441
0
0
0
907.3569271
0
905.3597686
911.4250258
617.8174779
1249.478836
0
1092.497435
714.3657222
0
1547.951702
1505.89675
1164.251449
1154.337075
567.0275454
889.1430075
860.6658818
670.5784188
502.3234534
1086.229356
930.3849654
1069.086289
893.2075918
872.3023774
457.4484642
0
924.4504373
501.6646519
0
984.613869
546.1420596
0
0
1204.426549
691.61396
462.2092524
789.7000671
1064.822859
880.8469123
0
588.0113424
392.0858667
0
0
1070.159588
993.5086815
730.9281605
460.6990121
1293.763255
434.0485042
0
1068.627046
1135.340989
1263.175037
683.2967651
0
443.9717523
706.1464639
0
0
0
0
0
861.9886849
735.1769315
550.385674
1151.248296
1023.025038
939.9971777
1354.41904
2109.689678
2063.215286
1219.0321
622.3054417
663.1334103
833.7239701
664.1110929
496.7499694
577.162997
500.4753129
0
0
0
575.1625686
0
1407.581665
1758.973123
471.776958
0
0
0
0
1187.041499
1206.897272
639.3092728
1019.986955
633.7840737
0
0
905.905231
702.2274821
0
0
0
0
0
452.4358193
425.8961
521.178223
977.0612777
841.3071065
966.8048794
0
0
761.3605306
523.8037383
635.6449226
403.7765523
774.7080932
499.7466168
0
488.8279714
587.3489974
314.2030704
542.5115834
0
0
0
0
0
0
0
0
617.3037093
307.2135444
0
0
0
753.0713008
0
530.1699401
970.5573506
311.9776602
0
0
0
0
0
390.5957149
0
0
0
0
0
0
0
0
0
658.5150147
907.2522379
715.2579559
540.0563995
533.4016748
537.7977166
549.0412982
428.1319625
0
0
0
0
0
0
0
0
0
618.4428489
761.6458283
0
0
0
701.7737441
539.8278802
533.494219
926.2869484
568.3791598
550.8545373
0
0
0
817.2568745
0
0
0
0
607.9455966
0
716.1817863
490.0694101
703.9638471
939.8527376
770.4210645
489.720699
495.2876357
0
0
0
0
0
0
0
0
0
0
0
0
0
0
0
625.947136
0
1257.408008
716.6531069
681.1695693
0
781.7393687
906.4610285
0
0
0
0
0
0
671.5460266
512.8956031
362.7535695
566.1336312
1011.816094
544.0131181
437.1156324
537.1053697
907.3771771
485.3016314
738.2352013
640.0247128
0
452.4930545
795.0213138
0
0
0
403.3049857
0
1291.997575
1621.156188
0
1371.857805
0
719.503799
929.4321353
533.3387397
639.8282558
674.8610819
0
1202.957168
718.1574836
0
744.190909
748.3641076
0
0
0
0
681.3108908
1054.073461
863.1948258
0
0
0
0
496.4044317
495.1733829
0
0
0
809.1135219
1035.909195
0
568.9732471
904.7014411
0
712.9689262
607.5013382
548.4140418
0
1544.994481
1627.360006
0
762.9376147
0
0
851.8756039
968.0305614
0
476.5932733
904.1787084
1372.792512
827.4649891
395.2963751
857.857601
915.927732
0
0
0
1127.329608
956.0558535
345.3204728
0
529.8121851
0
0
958.049188
928.0744641
1085.822491
0
0
524.8360556
579.1720062
561.2423819
0
805.9526482
627.4631463
540.8621174
846.3059438
371.703658
449.0062796
545.1853249
1390.450996
1320.550946
914.6769451
955.4367155
1648.428327
0
732.0631292
858.1542264
905.7842628
677.247151
0
954.4146219
619.2716188
949.1392375
728.0451316
1012.63386
759.8918893
1141.722875
1171.693853
1142.98382
438.6687717
662.0998726
0
919.2790422
558.4356941
497.4918426
0
0
0
684.2949388
0
0
0
767.5320438
1220.357156
978.5644265
0
0
0
0
0
0
0
1541.903279
1291.876397
1064.188845
1724.331887
956.9552857
985.6544465
2082.763096
602.8028831
1029.799187
1175.87011
542.6954653
925.5536591
551.5132115
679.372758
611.4367487
859.6339739
0
1075.058868
607.7510052
0
814.3305186
0
0
0
561.9798213
0
0
0
0
0
0
0
0
0
0
1492.010689
2659.423114
2280.555508
560.3788877
1143.002062
1507.550976
1070.057717
1162.910155
803.7764219
0
533.7427562
913.789119
1051.624656
0
0
0
0
0
0
0
0
0
0
0
850.5462374
0
0
0
713.7744996
0
0
3230.883416
670.2724602
858.5902765
1394.84969
1238.231205
1098.055907
994.859723
761.6542742
994.3085532
981.905881
1023.04045
986.1455277
1007.151245
958.9640632
1008.580624
970.4414814
991.2504385
990.1518003
1468.426622
0
0
0
0
0
0
0
0
0
0
0
0
700.7497304
996.6426721
457.951391
500.0655221
0
703.0609822
972.9831015
1631.59909
866.16232
772.2579379
1082.142253
976.9814539
985.8370204
989.3615204
961.8346835
1003.159221
984.0241709
949.8660266
979.7655074
980.6494398
970.4250072
964.3216862
1001.556965
0
0
0
0
0
0
0
0
0
0
0
0
955.2048907
926.7198045
1091.367145
992.1851324
466.4230341
1167.362777
895.9250437
887.1801531
1021.47292
985.7037106
972.6497106
989.4107211
972.0894169
949.9712699
946.4719682
986.9000506
942.2885438
978.7794644
975.7920005
955.0763907
949.6662715
932.0138419
965.5833409
1012.653037
1002.117136
0
0
0
0
0
0
0
0
0
0
797.7517538
962.5997521
1394.044172
951.7115098
760.5019322
1329.768262
1468.615352
982.3662796
688.3449972
982.059716
999.1309855
975.1255091
956.6665452
973.0718323
976.9502492
931.9993339
925.3440294
929.8331795
946.0550063
926.1097892
937.350982
936.1368242
930.3272826
954.6166008
984.7976856
1003.84318
1001.466917
0
0
0
0
0
0
0
0
0
805.3564837
1128.143742
1366.415724
644.7687517
670.9423585
715.6652886
1138.535693
580.1201485
750.6871227
981.575809
987.1577486
994.1000531
944.3133873
948.5202274
933.2905322
915.5893442
922.5280324
907.0663745
927.3415542
952.4405078
952.6851306
912.2704188
911.7604725
926.2885278
982.7062462
979.1620235
990.396403
984.154461
993.3694031
0
0
0
0
0
0
0
0
0
1223.475967
1591.926982
953.9453716
1149.197025
887.5489233
787.4551436
1306.541604
1029.836577
992.2662699
990.4152629
970.549169
961.0767673
965.3725836
930.8954727
948.8913603
933.3287025
916.9154586
921.8273835
911.5309315
923.3570972
936.2699992
934.2711917
927.9545523
966.6455219
943.065222
952.3413689
960.1912483
1010.431136
986.3031621
1010.914179
0
0
0
0
0
0
0
0
1226.835465
925.6348542
1750.412547
1131.904118
858.9795558
1014.567781
1135.529008
1128.165899
992.2057818
969.0113092
974.9839631
947.0892386
946.9545371
920.9997716
902.0465746
918.6134888
861.935604
874.5056177
884.1584237
862.3198098
873.1284124
895.3319582
891.6935727
917.8552564
944.2727769
927.3367504
966.0988261
958.3739984
960.6819017
1015.374826
0
0
1196.104878
1456.599071
0
0
0
0
979.7683512
1124.261897
1098.471693
970.0198189
0
0
816.0361182
1010.752546
997.253445
971.4523483
946.2299464
925.4793408
914.9336483
912.252233
876.4565669
877.3255932
853.5924542
831.6388346
823.6944113
833.2585708
816.7604926
877.9383255
858.6805485
916.7848828
892.9328399
928.5944046
962.9072925
978.9002746
952.148048
968.5695659
1003.397064
0
0
0
0
0
0
0
1251.405615
0
692.8940939
543.4782732
858.426524
623.0908823
729.8037971
995.3868975
967.0368677
931.1488141
910.7806509
940.3718535
908.0997562
885.0651526
900.587044
863.6393104
831.507227
757.9586041
774.8753463
756.8329676
777.3268695
822.9768774
842.6828226