/*--------------------------------*- C++ -*----------------------------------*\
| =========                 |                                                 |
| \\      /  F ield         | OpenFOAM: The Open Source CFD Toolbox           |
|  \\    /   O peration     | Version:  v1706                                 |
|   \\  /    A nd           | Web:      www.OpenFOAM.com                      |
|    \\/     M anipulation  |                                                 |
\*---------------------------------------------------------------------------*/
FoamFile
{
    version     2.0;
    format      ascii;
    class       volVectorField;
    location    "3.996";
    object      U_N2;
}
// * * * * * * * * * * * * * * * * * * * * * * * * * * * * * * * * * * * * * //

dimensions      [0 1 -1 0 0 0 0];


internalField   nonuniform List<vector> 
50792
(
(1299.665454 -394.0750666 -470.8694912)
(3768.462461 -262.0782799 -238.9071224)
(3108.836745 -285.3511837 -272.8017834)
(3998.981955 -168.089865 -101.881788)
(3625.785167 -386.5031415 -120.2336163)
(3094.243512 -191.9744738 -160.020138)
(3098.674662 -157.6917155 -121.2431321)
(4799.561401 -89.46808959 -51.94430733)
(4353.511882 -142.3775897 -145.1806215)
(4764.992567 -159.9580913 -103.2663768)
(4584.362724 -201.4441473 -177.6002297)
(5217.60799 -83.84608582 -55.0359732)
(4093.303509 -232.4472165 -232.0876396)
(4793.139628 -213.9519714 -177.9568416)
(4322.270658 -260.4038996 -160.0226534)
(4092.550142 -178.1835227 -135.8897421)
(5480.711452 -144.1157806 -92.61396259)
(5697.632799 -205.8968554 -108.7765535)
(5144.657351 -235.7928707 -178.6476665)
(5507.945559 -112.2700083 -118.8295308)
(4645.007179 -249.3409283 -231.2016454)
(4758.715925 -238.3073357 -218.2862348)
(5648.880326 -232.3036943 -134.4739242)
(5381.709081 -296.9781452 -227.3328664)
(4624.346329 -226.9783805 -208.4216491)
(5839.425354 -160.6319129 -141.1202794)
(5729.950188 -147.5709458 -140.6839549)
(4391.0996 -189.1914721 -204.9440842)
(5400.744282 -307.1837384 -142.8921755)
(5304.719112 -205.7511235 -170.6949586)
(4792.129292 -238.5857365 -229.2128453)
(5334.24318 -219.1465045 -199.5726482)
(5642.903077 -287.8598967 -145.0404264)
(5189.773265 -301.8510353 -191.3293181)
(5576.940888 -213.7720128 -159.1647609)
(5196.405758 -230.1650286 -232.2127617)
(4643.553009 -211.4127944 -198.9758935)
(5353.328127 -198.8685526 -137.2408514)
(5255.142656 -192.4887968 -129.5504931)
(4922.190094 -185.4558176 -122.826398)
(4672.429037 -127.326431 -195.2224192)
(4590.500046 -109.8521158 -170.779274)
(659.2218773 -365.1194362 -514.6038074)
(6021.865056 81.01512997 42.48278995)
(6011.510636 60.44987494 46.05025839)
(5087.49931 141.0595246 -149.5575281)
(3593.521305 -173.0121738 -201.2527213)
(4127.153086 -89.64888918 -65.5909914)
(5065.005967 -31.61345308 -67.09200612)
(5057.752078 -54.71142787 -17.61793931)
(4717.96159 -91.15119939 -147.375713)
(4943.34182 -132.9622773 -92.85257155)
(5148.417374 -84.14916468 -68.38431628)
(5350.751048 76.13992051 -80.02547892)
(5358.185103 -59.42788465 -37.6016073)
(4665.636547 -78.28718756 -201.7967086)
(4262.981257 -163.5605046 -166.0077924)
(4734.457951 -28.26749388 -110.9402886)
(5076.463419 8.113411113 -156.8711939)
(5062.435323 73.64659126 -56.89028859)
(4678.878355 -48.41579293 -158.7262536)
(5021.356009 -139.033395 -131.1677726)
(5187.505366 -137.2801449 -108.4869648)
(5520.047851 -83.33925309 -55.80039173)
(5184.035683 -194.4295389 -55.21290024)
(4520.969224 -154.9354834 -123.5028078)
(4063.409064 -91.02676841 -132.9451188)
(4569.245288 -26.42068408 -159.6923622)
(4822.836563 -90.20976649 -116.2478147)
(4376.798432 -155.2249818 -113.7628115)
(4317.898297 -85.14012574 -166.9297125)
(4574.162669 -133.4053451 -194.7917837)
(4187.017351 -45.99787421 -108.9112508)
(4951.112301 -229.0773468 -90.52757224)
(4593.171985 -166.8453631 -132.8733601)
(4879.051155 -87.77350784 -102.1138782)
(5201.820809 -11.74028637 -54.20378471)
(4213.726616 -102.604677 -181.103189)
(4775.641805 -93.8451441 -118.0191556)
(4030.181899 -147.4987918 -181.6452886)
(4311.274456 -154.476259 -167.3208641)
(4082.727685 -101.8580717 -129.1470524)
(5460.592291 -77.22225696 -77.82234649)
(5561.826658 -73.94137919 -34.9164302)
(1151.884638 -650.8337466 -403.179845)
(6110.91076 -45.4452853 -47.48120083)
(5370.685067 -46.94781052 -138.1891314)
(5034.058076 35.06375834 -167.7998866)
(5216.73663 -64.10295603 -67.86416657)
(4921.17596 -89.44858404 -23.71043753)
(5123.862782 -112.2915867 -6.92116046)
(5590.082913 30.20684575 -34.67076293)
(5408.862351 33.67044444 -63.62287898)
(5176.339461 -20.10972404 -95.44942995)
(4488.324089 -152.034171 -201.5734902)
(5698.417497 -28.73355847 -76.40302405)
(4142.127816 -14.55662353 -243.8173048)
(4629.101774 -118.0925487 -159.172233)
(4599.492206 -100.1449582 -176.0063663)
(5488.35718 -25.56711707 -83.11274466)
(5018.875922 -23.18059454 -118.4157452)
(4712.190895 -35.75672434 -80.98663306)
(4332.857401 52.82268119 -133.3669737)
(4296.041086 65.29223086 -121.6879103)
(4478.054229 39.32593131 -113.1250892)
(5184.440896 59.28470497 -76.33218403)
(4098.751708 -29.59843508 -135.1677998)
(4189.476872 -21.90982122 -193.1249252)
(4884.639062 -81.46605298 -153.5570716)
(4115.737117 -106.3762508 -175.9656348)
(4354.688342 -188.4758032 -194.0204183)
(5612.736171 -232.8270905 33.39927183)
(4243.346779 -148.820613 -91.62448275)
(4203.384124 -235.8561447 -209.1408668)
(4522.284887 -116.8670911 -226.479166)
(5046.317435 34.59773572 -79.20470896)
(4754.074447 9.435514529 -112.3209952)
(4204.0139 -9.169681476 -177.7105429)
(4432.43014 -39.6016158 -234.0278577)
(4487.073483 -137.1533981 -164.3897806)
(4189.746085 -95.4443573 -152.3820733)
(3744.494569 -37.56345274 -199.1730983)
(3747.852522 -68.08849981 -149.5213855)
(4206.445464 -92.82924462 -136.4907253)
(4860.550581 -69.81514275 -133.2408835)
(4801.467354 -134.893563 -192.7721637)
(1432.257683 -469.4487742 -523.6406268)
(3244.883533 -30.22913778 -252.427857)
(4589.820639 11.95613806 -132.1797756)
(4984.759206 -225.4657351 -133.0205515)
(4590.567534 -171.4295382 -92.19672499)
(5877.352846 -48.63029722 26.94637022)
(5132.145327 -222.7401681 45.93584229)
(5575.276007 -67.28370437 -1.235172902)
(5519.370061 -95.27637829 -26.91407513)
(4364.737759 14.94902356 -121.3029267)
(4138.162379 -73.6620446 -168.2249255)
(4560.692309 -3.297631224 -137.572018)
(3931.777782 40.59664475 -275.8986779)
(5206.605458 -50.78961677 -174.3096665)
(4439.460918 63.72493801 -205.3362475)
(3539.970936 -56.06564121 -192.2565847)
(4324.180546 -97.72470876 -172.4723892)
(3972.845202 -73.3974888 -122.1926793)
(4833.218184 -65.836624 -92.17487392)
(3528.952861 93.35294457 -67.80292079)
(3552.720286 93.52923989 -191.1124926)
(3699.279274 -122.3342969 -293.1886219)
(4411.79856 -128.7289428 -138.1499399)
(3556.221815 -125.4563082 -181.1153084)
(3086.135273 -30.83080953 -306.2169514)
(3939.266316 -170.6059746 -185.1644428)
(4226.273259 -102.6090433 -199.5600911)
(4542.470646 -49.9436962 -84.87651106)
(3539.667623 -85.10622572 -237.8532366)
(3112.634294 -47.38510974 -119.1092875)
(4126.300394 -54.25945336 -155.7168546)
(3928.202501 8.636520372 -157.2312181)
(4810.680173 90.16743333 -129.9326879)
(4691.053723 -29.67574079 -74.80418115)
(4286.18439 -55.65549066 -137.9562949)
(4656.271465 -47.26174467 -107.603092)
(4669.218357 -85.06015733 -100.0611502)
(4377.093901 44.55302438 -146.2684672)
(3895.359089 -30.37068204 -83.56147217)
(4722.074882 -44.31166369 -169.4415996)
(4797.733711 -117.4586701 -132.9559575)
(4877.01977 -108.7602807 -168.423167)
(1142.481164 -392.7778773 -779.5902081)
(2096.431681 6.028588394 -290.517258)
(6059.746277 -66.53858831 3.138383147)
(5061.650337 -247.7182297 -105.0943903)
(5511.123258 -209.2392026 -33.75194437)
(5309.414628 -91.06533852 -89.11730611)
(4014.098048 -129.8612436 -212.0337767)
(5254.126616 -43.54108725 -111.7329944)
(5605.779438 53.36606485 -93.32299736)
(4952.429736 -124.2105505 -110.394702)
(5285.470528 -138.1774302 -119.5265795)
(5843.773049 21.21283224 -83.33261723)
(4973.859784 1.65771219 -58.98258121)
(5463.473148 13.25020824 -28.23986857)
(4636.773431 -32.24257732 -123.3669412)
(4712.221835 33.81531311 -99.90083739)
(4596.986338 -65.35631751 -112.4428134)
(4108.829665 -42.98966161 -141.4683554)
(3863.883978 -66.34701551 -144.5363156)
(3956.713441 113.3944115 -110.4022308)
(4142.76767 21.61734578 -73.06776929)
(3366.223914 -67.7469286 -157.8245835)
(3467.716981 -50.1463945 -152.4405716)
(4253.662191 -215.8009889 -182.4896917)
(3442.276562 -69.71660108 -201.6308381)
(3735.611978 26.36780367 -258.646333)
(3735.289299 113.0735552 -200.4687671)
(4095.646329 -66.83597312 -176.9707261)
(4090.606137 -116.7588313 -166.6237053)
(3711.096468 -78.44056819 -138.8860685)
(3639.602957 -35.42581739 -232.0511488)
(5070.235993 -150.3663663 -166.3819456)
(4235.530768 -90.97588057 -119.8641927)
(4673.255668 -131.6311473 -112.6184555)
(4809.544207 15.93214961 -65.25966314)
(4198.726097 -28.47072878 -86.70477999)
(4443.285693 -92.05497787 -149.5111332)
(3841.62759 -14.48358044 -165.310945)
(3666.701643 -19.08418567 -98.21737414)
(4501.450812 -56.98618724 -162.4620549)
(4206.23845 -160.3943698 -169.8322703)
(4546.706392 -114.2216959 -251.70493)
(473.6082052 -263.9583872 -382.4412074)
(5213.981447 -6.829496865 -60.57272132)
(3106.11652 -48.35238794 -158.2039067)
(4833.625117 -45.00614383 33.74166979)
(5361.918973 -85.6428811 -18.90452313)
(5080.856214 -84.59084567 -195.8035369)
(5248.538346 -59.89241769 -19.53434026)
(5378.904625 -117.4661871 -52.29431154)
(5010.235893 -145.9181201 -115.0171675)
(5394.037434 88.00490674 -113.7978766)
(5550.878516 30.41253612 -49.45381648)
(4177.742517 -112.9013548 -281.5984863)
(4945.327572 -0.8886441882 -137.4072698)
(4755.411206 -174.7534816 -113.8780454)
(5283.308717 -49.24883576 -46.03747069)
(5180.625032 0.02676899575 -111.2797813)
(5176.550147 35.70564167 -125.9328602)
(5478.996288 -16.87846091 -9.694631252)
(4512.767603 -22.20306656 -93.19845776)
(4611.994971 -127.3396869 -59.20918499)
(4549.594757 19.28009061 -39.83074932)
(4297.036707 13.04218256 -162.6465285)
(3610.990572 26.61336088 -129.5914045)
(3718.328215 26.57210986 -113.8474434)
(4719.011918 83.5711296 -149.758115)
(4510.152828 96.60371947 -138.7734571)
(4593.004167 59.46656733 -90.68487336)
(4076.674066 34.13477119 -188.3072695)
(3926.293086 -58.80265068 -191.8688704)
(4746.277416 -57.28896208 -187.7562412)
(3444.173121 -198.70095 -195.8366281)
(4776.096225 52.36620631 -140.4200034)
(4320.905055 -60.0176848 -140.1266187)
(4524.92802 3.000195588 -97.31786213)
(4634.725453 -97.94889215 -155.7108239)
(3767.801084 -29.48886193 -157.4681895)
(4594.956356 -186.4119884 -84.2654268)
(4506.801199 -110.1493221 -91.69139598)
(4856.441529 51.81326579 -120.2671392)
(4744.974554 -158.0007742 -165.5253824)
(5022.59335 -112.8592 -194.7623631)
(5327.016821 -54.43790618 -151.3657072)
(865.6693341 -323.9460678 -290.2959382)
(6042.130093 19.12331656 3.051836315)
(5406.723689 17.6052715 -73.47497042)
(6052.171428 19.54802339 16.57341353)
(6056.953749 -6.948436215 9.011821689)
(6021.229948 -18.11042119 0.8138824661)
(4332.689087 -11.00473405 -130.2741796)
(4451.767209 -90.85382134 -147.909942)
(5043.19892 31.86030646 -140.1237863)
(5497.776852 62.62242657 -66.87877138)
(4977.190771 -49.58997924 -129.9022941)
(4712.426088 22.90685782 -142.9746669)
(4433.554187 -19.02645351 -172.4249567)
(4940.618257 -2.581648849 -74.82047301)
(5352.946592 99.26445468 -33.33808149)
(5407.907062 -66.75313897 -59.94216787)
(4373.075211 -122.795162 -90.68324011)
(4776.229999 -20.93153203 -100.2335789)
(4838.843867 -94.37106895 -31.25166041)
(4312.435055 -180.3964151 -83.98808156)
(4709.144736 38.37268856 -148.5808158)
(3482.678343 20.90927383 -148.1445423)
(3668.180727 -55.29002589 -240.5554875)
(4436.878319 39.68137684 -159.4856916)
(3804.41465 145.7240387 -145.9213627)
(3630.763044 100.6616923 -172.7695965)
(4684.651041 65.97449733 -85.54861477)
(4261.78788 -7.59832173 -194.3651093)
(5165.328345 -55.32210573 -130.2958112)
(4950.32168 -3.639527296 -170.4446486)
(4119.19035 12.89466442 -176.1397006)
(4278.733088 -65.80607603 -154.2762483)
(4715.598497 -32.40482131 -231.4642513)
(4640.706317 36.48877896 -97.95849703)
(4350.81119 25.88845876 -153.5204125)
(4993.922142 -45.31529753 -178.6296404)
(5107.323132 -117.1270874 -37.55948234)
(4304.910083 -142.4099075 -58.54770166)
(4452.417129 -9.705564842 -128.7231383)
(3987.691135 -112.5589156 -189.6343194)
(4549.411926 -70.52698652 -124.2774377)
(5748.390747 53.30359013 -28.87926243)
(267.44738 -195.4333379 -410.8178639)
(4823.748901 -177.7107966 -44.68731117)
(6042.287646 74.79337058 3.290613969)
(5978.888158 43.87140081 11.87180718)
(5975.282573 40.41573937 27.20891782)
(5574.92656 26.87371161 9.83569206)
(3811.03017 27.17611699 -314.1084497)
(4607.395461 -54.92575281 -37.03476239)
(5042.23157 14.64181865 -196.6269823)
(4492.599147 -124.9471092 -226.0230931)
(5012.170866 68.20987343 -138.968308)
(5343.959774 15.67177401 -35.51198276)
(5561.424729 18.76516874 -38.17627253)
(4916.227872 65.17165904 -144.6192727)
(5273.249568 58.69188844 -90.81874833)
(4387.342205 -4.283540223 -193.8428177)
(3695.454671 24.06629223 -177.7961296)
(4275.744083 -106.6556953 -208.190909)
(4765.350505 -170.6279883 -91.56101346)
(4105.650463 -152.2721332 -172.4153945)
(5107.313039 11.71629966 -65.13377685)
(4476.257968 80.91870292 -137.0947157)
(4089.591406 31.29091196 -170.078796)
(4744.837435 106.046755 -65.2241788)
(4010.604938 47.34012873 -141.0771313)
(4538.36965 105.7762333 -92.1670044)
(4334.192784 -5.080114213 -76.17927118)
(5166.070365 -134.7521047 -68.11646928)
(4686.637759 -167.2616181 -108.2774378)
(4659.673945 -158.3709 -101.7493824)
(4449.520242 27.8549356 -149.1795407)
(4771.619789 -16.31701507 -158.0925975)
(4883.171902 -36.647421 -150.3603653)
(5139.756857 21.31983537 -151.6256298)
(4724.668689 -25.84889591 -215.2681204)
(5156.577643 76.91862175 -98.11838463)
(3951.277375 -17.31457597 -90.15722891)
(3620.252835 -96.12771769 -169.1088356)
(4118.209533 22.78591428 -204.7509453)
(4459.613957 -8.970489349 -176.1170234)
(4718.764387 16.71619477 -142.1203224)
(5013.022636 -22.55913294 -100.1848627)
(-230.0237263 -169.8934298 -505.5905569)
(2981.262153 7.993462855 -70.28401961)
(3334.727191 -141.9374842 -46.26511128)
(4405.414879 61.17528474 -39.64057179)
(3806.195376 109.002844 -104.9778716)
(4242.300487 95.8791513 -182.4931281)
(5016.140681 53.08155089 -86.59556918)
(4904.946466 -73.09262984 -174.9242676)
(4599.398322 -98.37170429 -203.9316128)
(5142.978819 -59.40929293 -121.9792278)
(5201.693794 40.43721625 -98.4764007)
(4886.31079 -48.37733895 -158.7731883)
(5480.111287 -16.17280871 -84.4107709)
(4593.723738 21.41116873 -150.5623956)
(5034.269445 -128.5564697 -124.069678)
(4605.086427 2.292498771 -176.7076666)
(4525.658399 65.1105853 -156.3336435)
(4892.025079 96.23138159 -138.9739045)
(4322.961379 7.537946233 -115.7372689)
(4227.607192 8.787302764 -186.7550673)
(4598.813107 -62.69604724 -108.4105561)
(3876.406153 16.6333377 -290.1686173)
(4973.570353 90.50920782 -217.5516775)
(4995.55328 123.8653361 -101.1473733)
(3912.559855 26.14569799 -71.10499431)
(3461.259982 -78.48841896 -162.0256409)
(4370.201032 -77.66978639 -123.895514)
(3960.529615 19.52874293 -101.0158337)
(4532.53695 -38.22001695 -125.9025067)
(3980.317532 -226.1989441 -203.9492068)
(5066.051455 -107.0544116 -141.2569465)
(4299.069864 55.16181765 -194.7300916)
(3928.865623 15.77002369 -230.3783881)
(4710.858561 -27.92442211 -150.5503896)
(4117.669943 93.02925665 -203.0052855)
(5468.738782 61.7490482 -62.14542074)
(3821.165911 -14.84284078 -94.00131614)
(3902.926523 -76.93944417 -160.649951)
(4436.252666 -8.730639475 -100.8047602)
(3804.454576 56.2608522 -230.1076055)
(4799.721424 -38.39502258 -132.0185913)
(5506.060082 23.67790333 -64.3181456)
(-210.2823705 -264.328692 -543.4357638)
(6093.201337 102.0835015 12.78931651)
(4950.738288 -87.55634544 23.46677929)
(5561.647098 -44.06507205 10.3167116)
(2981.016959 247.881179 -136.6263849)
(3806.518188 81.81163908 -67.57558888)
(5255.622024 -23.56439854 -70.85365282)
(4649.800487 -129.5720317 -180.6320311)
(4320.980497 6.899071839 -198.9418971)
(4548.432465 -112.429838 -130.2063839)
(4848.148542 121.7191859 -97.12652157)
(3993.408693 3.6405253 -161.0179601)
(4804.861611 -125.9037869 -211.4161121)
(4829.200794 11.9512832 -177.8430148)
(4830.529293 -42.39411727 -246.211427)
(3875.639649 104.5302912 -241.954073)
(4764.661277 13.28508376 -169.5341208)
(4204.901279 -71.12742034 -82.44681562)
(3676.365021 73.34722403 -142.7986905)
(3865.788594 -124.8218544 -85.67063265)
(3703.414472 -134.9435633 -128.3453497)
(4869.522144 -2.007315771 -48.10306749)
(3969.326485 20.03646877 -211.3103884)
(5142.665326 -50.26263237 -42.0877985)
(4530.069577 49.87875416 -94.81672841)
(5137.140571 -80.97166638 -55.68185431)
(4402.47075 -134.5555345 -37.13218372)
(4337.083183 15.94203663 -195.1602907)
(4267.98378 -61.3620903 -138.2530534)
(4264.804706 -17.99194002 -129.839184)
(4498.350548 -96.6854652 -155.1509514)
(4339.143658 14.93055774 -227.4696396)
(5157.148892 28.5318345 -63.95389136)
(4679.869301 -71.81966154 -154.3093118)
(5022.782961 -37.14034362 -58.2571219)
(4445.772837 46.54115178 -135.3227189)
(3915.455123 -20.06053525 -189.09722)
(3778.026364 -47.79780432 -176.0563646)
(4603.969397 -14.75951066 -182.2804579)
(3951.526216 -47.5307274 -116.3089691)
(4224.312714 43.83171838 -154.491352)
(4870.005676 46.43964105 -61.14649021)
(143.7729027 -512.1588382 -432.7814441)
(5985.504148 28.03906779 24.67264136)
(5974.389565 4.950473148 3.810030651)
(5010.760404 -141.4180936 -5.550762589)
(3774.527722 154.7368978 -118.8762528)
(4062.916909 99.84000567 -51.44593805)
(5718.239814 3.889730965 -3.55013638)
(4500.376173 -110.9139978 -94.54481947)
(3708.457059 -218.1414877 -200.7162626)
(4096.923841 -11.71505611 -175.5635141)
(4245.281085 -16.68900574 -196.8714624)
(4919.282574 70.2261342 -101.7648711)
(4881.013428 -37.6446305 -134.4699465)
(5516.512452 -97.8773448 -41.13952552)
(4709.972028 19.66221472 -108.7518613)
(4434.208215 -17.07529115 -132.6177774)
(4768.147987 2.274904382 -106.1686877)
(4818.69018 -6.318860483 -164.3401694)
(5143.361817 -8.741717529 -188.2861703)
(4330.426182 -136.4175491 -194.3383147)
(4264.497115 -199.8332678 -200.5215893)
(3380.466546 10.07923854 -200.8137426)
(3847.81319 -14.42837258 -236.4922913)
(4267.270951 -157.9637229 -194.5941311)
(4483.759524 107.4162047 -78.72737175)
(4602.250063 41.65822568 -162.1886323)
(4595.312452 -44.55057851 -143.696194)
(4226.307259 -42.05406657 -126.678849)
(4717.954233 25.61414818 -129.8117354)
(4465.750824 11.07957827 -109.2092335)
(4045.568358 -42.84538194 -153.7485582)
(4854.082505 -83.22641382 -38.93411443)
(4249.804593 7.275439274 -172.2762133)
(4665.102431 -101.2449717 -163.3980595)
(4501.937889 -26.57111015 -185.6508456)
(5003.603258 107.4956074 -95.61730715)
(4209.540531 -82.99699246 -101.4217498)
(4589.818212 -50.47997589 -101.4647832)
(4497.082002 4.529267643 -156.0019238)
(4691.056828 145.7097627 -165.4950466)
(4443.646134 41.20565998 -193.7203392)
(5539.039917 -64.83927803 -74.39391549)
(-90.04985829 -192.4136856 -419.5271716)
(4183.659483 -76.06942729 -5.452616751)
(4829.317175 -66.09011324 49.44660496)
(5026.835499 -71.29423022 55.44568138)
(5114.125103 -93.04641999 17.7690759)
(3599.769788 -139.7321259 -220.6028462)
(6005.392038 -31.63926394 33.47775143)
(4412.617411 -61.50469224 -27.58896179)
(3876.991156 -99.493408 -204.1667882)
(4476.905037 -169.2742557 -78.30111365)
(4535.925755 79.43524723 -130.8671959)
(3628.562542 153.4210568 -181.6298451)
(4298.168183 36.99617702 -215.0315557)
(4953.47237 -72.42179108 -96.27728996)
(5311.376469 -38.49010448 -58.98609243)
(5001.174634 -54.91210489 -74.63927998)
(4813.309426 -150.9156394 -54.94202079)
(4901.015994 105.4348769 -76.68228971)
(3845.341388 60.14398625 -189.3587896)
(4107.08361 -61.28634936 -218.0797538)
(4561.042512 -77.74569159 -121.6053544)
(4040.085442 -13.94173203 -64.50073242)
(4381.827824 -91.22161395 -151.1212194)
(4868.482362 24.98937433 -149.281027)
(4864.144276 6.822715366 -155.2999075)
(4777.426257 27.22355953 -91.45634996)
(4198.785773 128.7930986 -166.318264)
(4483.153903 105.5650372 -196.6984686)
(3430.777864 -106.6180109 -248.6179272)
(4496.284461 -89.3178696 -182.0325337)
(3931.310724 -60.68398614 -307.8496079)
(4244.697648 -47.63636284 -195.4448382)
(3756.073753 -38.96651504 -209.3919954)
(4541.908185 91.94940053 -118.537748)
(4566.031141 -71.90435384 -131.9138823)
(4253.069294 -109.6203802 -117.7513551)
(4451.495771 -166.2219932 -110.7092751)
(3837.019976 -38.9654512 -195.6621637)
(4126.981315 -59.39526387 -229.6422141)
(4385.844716 13.30642789 -191.4469962)
(4832.110372 56.25205496 -181.3017066)
(5685.759896 57.67383464 -99.24259235)
(377.9112631 -153.6473046 -374.3307848)
(6018.314828 49.21401641 121.1593667)
(6011.907738 56.04782801 95.04667517)
(5898.690447 56.11030926 71.07677652)
(5344.102121 -66.59222588 58.01269283)
(4663.693465 -140.2332294 -133.4045712)
(5645.625154 -113.0002267 0.9574387936)
(5179.517885 90.48079507 -8.798123615)
(4719.423123 -63.47878621 -111.5006294)
(5036.729525 -52.97544503 -92.62560674)
(5785.036128 -37.58596236 -35.39187823)
(3839.587142 163.6110294 -206.5194524)
(4572.904706 89.76205779 -86.28157153)
(4745.70466 37.77734023 -113.4480221)
(5698.553091 -8.20708393 -52.99885873)
(5643.720649 -59.67720542 -41.67173913)
(4743.767048 -167.7479148 -127.8406859)
(5045.544953 -36.70781864 -135.0666871)
(4628.11874 15.19910803 -94.23504152)
(4038.943877 -0.6785084429 -208.6218839)
(4801.680706 -8.605011008 -51.78432459)
(5527.120964 18.25386242 -85.40045592)
(4274.24576 -70.45362702 -166.7954037)
(4636.824821 172.3127746 -184.614936)
(4443.362648 37.53460666 -207.6514681)
(4811.088387 151.587658 -106.3895993)
(4809.941793 -2.877053462 -62.5070054)
(4165.377532 37.44255912 -122.0471482)
(3593.086932 -62.34783452 -185.0487922)
(3786.093746 -152.6956588 -158.868154)
(4270.291247 -6.543301402 -147.8827332)
(4362.642679 -9.640970089 -133.6447239)
(3890.884268 61.89755133 -183.159373)
(4148.637099 84.57682927 -129.279702)
(4337.272351 5.343119557 -208.4733134)
(4115.713815 26.52109682 -86.92709135)
(3904.790776 -44.11078915 -88.99653442)
(4604.416083 -79.23253011 -149.733488)
(4379.239008 8.247493577 -128.5393153)
(4553.209791 -45.08629186 -200.8338127)
(4310.41762 -52.26162997 -187.9897479)
(5612.524054 6.789309345 -70.50605844)
(258.8091959 -313.1932706 -367.925991)
(3252.364168 25.12679478 -5.470495189)
(4009.604936 -4.780928011 11.07484809)
(4358.595252 -20.76111996 3.576177809)
(3594.471029 -10.62736613 -185.2003021)
(3450.193068 -97.95003931 -136.6066677)
(4777.581555 205.8409078 -1.630838486)
(3386.116193 167.0495419 -230.0884786)
(4654.896526 -86.41675964 -75.49079775)
(3943.190584 -61.77615373 -104.4727023)
(4794.496063 -30.94328152 -87.00503137)
(4017.716129 -43.9854086 -193.56524)
(5157.903341 -6.064753655 -78.80710426)
(3719.269302 44.07527817 -75.70553626)
(4354.396914 37.36302726 -141.669425)
(5380.316861 -77.57321046 -48.40486706)
(5162.754835 -39.04117387 -99.48811096)
(4630.301873 40.05405492 -190.6709238)
(5020.34751 54.11525014 -61.15835877)
(5185.1609 35.98743546 -110.7039495)
(4837.362839 -10.2806896 -95.12338747)
(4522.362628 21.98897033 -67.56559553)
(4976.963339 -22.34943247 -109.0712913)
(3791.172867 18.26020474 -157.0903396)
(3497.795226 9.275319987 -129.8050093)
(3946.559473 15.00947897 -181.2500873)
(3992.925376 125.2391601 -117.2401225)
(3575.209611 175.7260413 -212.5011035)
(3522.744288 84.61400616 -182.7582688)
(4284.970384 96.22707359 -151.2651119)
(4032.748658 -88.11183041 -184.2863449)
(3881.85962 -167.8722207 -137.9696131)
(4321.29272 -131.9531093 -131.7758081)
(4536.813329 -35.07652785 -126.6705531)
(4981.934892 89.54471978 -58.10263197)
(3599.852688 36.1378151 -123.7165654)
(3994.07821 13.06674933 -136.3764216)
(4786.156647 -142.2759431 -144.5619921)
(4686.032877 -13.15527351 -71.81189225)
(4941.916297 115.4532787 -68.68889669)
(4555.420777 -51.14196645 -98.39234616)
(5234.544855 -14.71533108 -74.51321494)
(-118.5572948 -348.0566177 -591.6456282)
(4927.186527 94.77163341 31.43908593)
(3997.774907 86.91308615 16.67927515)
(3750.202926 22.21090032 -179.8536267)
(4391.051646 -69.6203713 -118.4373499)
(4403.460538 21.71693703 -76.28875855)
(3820.930231 -71.6493676 -125.8413521)
(4966.597467 141.6192345 -83.86959924)
(4256.900006 -116.4926515 -144.3483039)
(3974.913432 -56.77765585 -205.6654919)
(4567.71839 9.288556663 -150.8956831)
(4579.61647 -3.56467394 -62.13520415)
(5119.095937 40.42938203 -87.09714436)
(4872.459673 130.0345638 -106.5660559)
(4538.870442 -47.93623363 -166.1512686)
(4788.265984 100.1209154 -140.2057875)
(5391.36802 56.35396454 -65.53990599)
(4503.353487 -16.98924407 -151.2245088)
(4056.922401 -44.01376172 -191.1330533)
(4151.605943 45.84267459 -131.6904961)
(4886.185758 146.9500392 -111.6698211)
(4485.359263 -37.22188496 -116.2298146)
(4226.575963 -19.19613584 -125.0509838)
(3920.994596 -25.28701824 -103.3761851)
(4133.436379 145.1212751 -76.70304144)
(4059.469758 39.43755774 -152.7870113)
(5133.588766 127.8157095 -45.6036873)
(4582.029946 37.43706044 -126.1928873)
(4470.541784 150.8474154 -166.6154462)
(3580.8685 123.202941 -228.2474429)
(3713.94541 -107.6007222 -179.7638596)
(3934.080888 -129.6032657 -178.503219)
(4602.965307 -22.390151 -134.2671383)
(4571.692449 5.30872569 -145.3399852)
(3813.022764 -29.14815411 -146.7557903)
(3772.489356 29.30342528 -90.31645375)
(3743.504802 63.63240275 -181.5194205)
(3606.239412 17.49709451 -168.0304984)
(3778.855604 -10.5851429 -220.8613739)
(5055.175258 -36.38986936 -160.7415231)
(4540.625693 63.8177154 -138.3168795)
(5525.83031 45.30312249 -73.4750998)
(305.6624723 -77.54830059 -431.9028587)
(6059.100536 2.749977131 86.49868408)
(6000.374646 16.57998384 44.684697)
(5592.852314 47.30168836 -54.45732115)
(3947.972749 95.14560535 -258.5641796)
(4493.194571 94.3077888 -204.9008384)
(4846.701114 -51.98760272 -78.56230643)
(3739.924955 -18.62342291 -194.9817774)
(4032.687732 -175.4909258 -166.7721866)
(3838.639376 -145.0717547 -101.6198541)
(4249.690334 -74.56707495 -128.2802855)
(5045.01771 93.0340405 -105.0366404)
(4883.9128 34.63146195 -130.6729132)
(4385.496697 68.0698209 -94.71371521)
(4843.060932 30.40976101 -134.0173939)
(4900.685258 21.05690448 -151.4994022)
(3730.279772 88.87108914 -95.91950946)
(4338.626358 -12.13582249 -148.7535908)
(4546.130155 155.970662 -114.0225406)
(3890.66439 39.56637172 -184.9200543)
(4292.015603 -103.5575693 -203.203789)
(4144.011929 36.8617327 -162.6653277)
(4921.912695 79.43643876 -126.0866813)
(4520.715922 160.8675943 -129.2161593)
(4647.877956 62.98923087 -91.71335234)
(4642.909915 66.25307196 -112.850389)
(3837.314028 -9.643319529 -159.9598809)
(3959.539061 -71.9840682 -274.8875003)
(4532.23367 39.51193886 -206.3790045)
(3933.918591 101.4581039 -184.9095043)
(4271.553367 62.14831443 -210.4451623)
(4672.896664 32.45594418 -186.0292129)
(4160.471274 -60.56090542 -105.4836915)
(4720.36868 41.86618095 -150.555724)
(3250.754194 116.0992036 -208.699044)
(4703.979948 118.0500787 -119.9523358)
(3868.318834 25.47457665 -139.7642482)
(4385.868678 -5.197270051 -85.27627528)
(4627.667491 -189.0914231 -47.69895107)
(4682.056402 -44.48699668 -91.60240523)
(4569.596365 -88.0521119 -113.4785906)
(4767.599498 -64.72407367 -120.1752615)
(581.4087798 -110.7145363 -723.5006321)
(6063.060064 40.6822698 -58.73205342)
(6008.264065 29.46046927 -35.24278734)
(5855.275336 12.6526012 -47.35724813)
(4925.899976 -7.20465481 -187.0160249)
(6026.101539 23.36340081 -44.74430365)
(5175.640539 139.039911 -199.9844968)
(3894.04042 -19.63697349 -150.4565367)
(4434.547014 -27.09224459 -108.4713737)
(3927.821447 -126.323667 -192.8239922)
(5700.241815 -66.3136148 -38.54353089)
(4983.114804 -106.7376622 -59.97908117)
(3655.066446 56.66155129 -63.17653235)
(5057.912664 44.53326264 -93.00301172)
(5040.135908 151.108214 -113.0889069)
(4648.363903 -138.6137419 -125.4041605)
(5285.729085 18.60429606 -34.09982602)
(4338.004722 -122.6150325 -93.53229014)
(3438.405583 4.588757152 -174.2582836)
(4484.294679 -49.30612524 -178.5326338)
(4736.424508 107.9213582 -162.9097635)
(4848.927256 -26.71283162 -118.9622107)
(4526.367056 91.16692089 -261.9851339)
(4173.451512 -25.31435725 -129.2222066)
(4074.041482 53.43128434 -121.4189387)
(4652.270848 -60.52836079 -65.53700805)
(3835.743231 -95.63059428 -164.018772)
(4593.161905 -55.10799656 -96.50890676)
(4105.40136 73.09219784 -118.5704937)
(4074.569796 174.9323084 -124.5462819)
(4184.039552 125.7666158 -193.7041984)
(4477.281543 9.230123128 -161.629693)
(4370.64682 -3.617855124 -102.4026709)
(4252.289306 39.40144837 -81.13440512)
(3432.127356 12.04887956 -181.6317988)
(3871.797159 109.1920056 -105.3856375)
(3901.796712 21.7138265 -108.5640936)
(4598.631983 14.62801005 -101.9975734)
(4842.439441 11.52101682 -149.6696969)
(4248.76253 -13.55459239 -249.38679)
(4972.615169 15.60274887 -141.106984)
(5639.845838 -44.87684585 -35.20869154)
(-69.68270417 -44.48808453 -631.0318742)
(4310.22664 69.29644864 -272.5562989)
(5858.939377 86.56876393 37.13606107)
(6052.126843 54.71031646 33.3590844)
(4894.43621 -98.34051878 -117.3210857)
(6010.993761 -10.01259473 40.22378673)
(4708.143033 62.8847168 -87.89187351)
(5115.744679 34.94589785 -43.8754738)
(4180.486017 45.61675642 -156.7052161)
(4468.856817 -18.98038836 -77.27253396)
(5028.153573 63.95252769 -97.01871283)
(4775.505466 -52.31436545 -54.57892326)
(4875.891472 -77.6604399 -79.08066184)
(4926.380677 11.79210927 -52.80257812)
(4600.271001 24.67997804 -93.03480065)
(4292.762102 -63.13934516 -170.7201549)
(4724.64207 41.88043428 -183.7409609)
(4680.232088 41.52461517 -182.9157992)
(3195.311338 37.68634123 -191.3067445)
(3237.980334 49.49717333 -131.3848324)
(4104.875882 133.1729942 -200.6434598)
(4211.945875 46.91736592 -203.1378167)
(4379.294759 6.771827989 -180.957604)
(3372.1793 65.93299021 -181.8081159)
(4377.464687 -88.06409568 -161.1412906)
(3301.081847 -108.0479067 -214.5083006)
(4066.018871 -149.41924 -79.22808794)
(4577.742813 15.35780736 -139.1329824)