/*--------------------------------*- C++ -*----------------------------------*\
| =========                 |                                                 |
| \\      /  F ield         | OpenFOAM: The Open Source CFD Toolbox           |
|  \\    /   O peration     | Version:  v1706                                 |
|   \\  /    A nd           | Web:      www.OpenFOAM.com                      |
|    \\/     M anipulation  |                                                 |
\*---------------------------------------------------------------------------*/
FoamFile
{
    version     2.0;
    format      ascii;
    class       scalarField;
    location    "3.989/lagrangian/dsmc";
    object      ERot;
}
// * * * * * * * * * * * * * * * * * * * * * * * * * * * * * * * * * * * * * //


68512
(
1.304115587e-20
1.586871444e-21
1.979245208e-21
2.526547276e-20
4.365185978e-21
5.499122672e-21
1.577723884e-21
1.217215622e-20
1.540116258e-20
1.451739433e-22
1.789491969e-20
5.239909077e-20
4.770927679e-21
6.97449311e-21
5.559324e-20
1.010300293e-20
2.18288493e-22
7.181225556e-21
1.089797317e-20
1.273174491e-20
3.020576228e-20
1.529330235e-20
9.107315052e-21
3.210636142e-21
1.719679587e-20
3.39148226e-20
1.956217584e-21
1.357722478e-20
7.734383897e-22
1.749399122e-20
1.399533593e-20
5.214233225e-22
2.683054897e-20
1.926559713e-20
1.183067042e-20
2.158148013e-21
7.149092324e-22
1.315066402e-21
7.128040401e-20
2.018629701e-20
4.138574346e-20
1.032486927e-20
1.944871512e-20
1.571514296e-20
2.317288592e-20
3.072506198e-20
6.085835669e-21
3.268337599e-20
4.80132035e-20
4.647777565e-21
2.781332125e-20
1.03254672e-20
8.007525324e-21
8.436325399e-23
3.237419204e-20
5.864211298e-21
1.492891679e-20
3.036493123e-20
2.532998892e-20
2.637019372e-21
4.384296125e-21
1.949007481e-20
2.656164506e-20
4.022563585e-20
2.090092453e-21
1.441865984e-20
1.338572909e-20
4.22461086e-20
2.271291703e-20
1.151884932e-20
1.207364612e-20
1.062839697e-20
1.187360716e-20
1.956189024e-20
8.551431102e-21
7.54670636e-20
5.430345346e-20
1.172282554e-20
1.268175824e-20
6.06329587e-21
6.799495887e-22
4.433488125e-21
9.205808975e-20
2.008768506e-21
4.737399382e-21
1.003588972e-20
7.760028023e-21
2.280848422e-21
1.85604107e-20
9.905483259e-21
1.498500364e-20
1.79329076e-20
1.237160755e-20
1.070611949e-21
2.230640428e-20
1.890287964e-21
1.086956655e-20
8.871390739e-20
4.060009118e-21
1.347083773e-20
1.360992375e-20
2.791499624e-21
3.507822993e-20
1.617749221e-20
2.635203417e-20
1.206823854e-20
4.970651612e-21
1.20473224e-21
4.803585346e-21
5.054848181e-21
2.746090415e-20
2.30046663e-21
7.816245001e-20
5.523074249e-21
3.624300246e-20
7.658482841e-21
6.789943234e-22
1.106447204e-20
4.660354003e-22
1.363703931e-20
2.177415717e-20
1.002244096e-21
4.694999382e-21
3.850403372e-20
1.163643566e-21
1.45343562e-20
7.355333952e-21
1.077970631e-20
2.212817113e-20
6.644497172e-22
1.151527825e-20
2.427683432e-20
9.478317071e-21
1.63437926e-20
2.076332696e-20
8.545100149e-21
1.312485867e-20
2.54627848e-20
1.037394695e-21
2.343590316e-21
2.80753368e-20
2.011444082e-20
8.115742834e-21
7.150876769e-20
5.624887408e-21
1.921390217e-20
2.701180089e-20
4.459750965e-21
1.249888326e-22
9.605616844e-20
8.397821222e-21
9.683269359e-21
3.763123032e-20
4.606767888e-20
1.148828987e-20
1.622449563e-20
7.131748969e-21
1.578935268e-21
8.807741017e-21
2.173895177e-21
5.634948084e-20
1.888047364e-21
2.09942006e-21
9.074886013e-22
9.096524019e-21
1.079558294e-21
4.656243357e-21
1.686050301e-20
3.931542084e-20
1.195817041e-20
6.657950238e-21
1.206887447e-20
1.779286507e-22
8.947126172e-21
2.63923977e-20
1.120686765e-21
4.909121824e-20
9.277945114e-21
3.336732111e-20
1.945072025e-21
1.459556375e-20
1.490259023e-20
6.430193013e-21
3.484253187e-21
5.07409684e-20
1.818874912e-21
2.668720923e-21
9.30537166e-21
6.489270993e-21
8.818432547e-20
1.276986898e-20
1.372227944e-20
1.804232775e-21
3.22910874e-20
3.554697813e-20
1.87255119e-20
3.48246303e-20
1.79535034e-20
2.418506677e-21
8.077647656e-21
2.201887175e-20
1.977951819e-20
3.060219749e-20
6.600465467e-21
6.480828177e-21
7.234346612e-21
9.5220615e-21
1.323263685e-20
5.061636793e-20
2.582821216e-20
9.224911902e-21
2.110530444e-20
7.300174074e-23
3.739350053e-20
6.17204557e-21
4.746048758e-21
3.045792676e-21
7.162163946e-20
2.446563407e-21
4.395315469e-20
1.386236064e-20
2.091984233e-22
2.849240263e-20
1.49050414e-20
3.21585289e-20
1.976436901e-21
2.789432508e-20
7.438785809e-21
1.8445218e-20
2.949149756e-21
3.454641549e-23
1.229403232e-20
6.618356224e-20
2.879916362e-20
3.826790147e-21
1.778881739e-20
1.487370933e-20
3.662891298e-21
3.678776552e-20
4.204848464e-21
8.792039249e-21
2.88385665e-20
7.172029188e-20
6.160985929e-22
1.427875691e-21
5.101502466e-21
8.778202022e-20
7.956656986e-20
5.873722786e-20
1.705756874e-21
1.467071043e-20
1.514957812e-20
6.059388192e-21
2.863399548e-20
6.777003452e-20
8.89107227e-20
1.28119047e-20
3.651568578e-20
4.49942127e-20
4.134837833e-20
3.938985684e-21
1.330091727e-20
2.619810496e-20
4.180778911e-21
7.845440308e-21
3.29253918e-21
2.603437341e-21
5.839158716e-21
3.545520925e-20
4.061170992e-20
4.349259378e-20
5.839242058e-21
5.682378665e-20
5.814618567e-20
2.593469073e-20
8.823219192e-21
3.931774651e-20
1.043657602e-20
4.789109544e-21
1.322038627e-20
4.535999721e-21
3.763202938e-21
1.612159495e-20
2.391840018e-20
1.113647547e-21
8.431545558e-21
4.499636828e-20
5.836936537e-21
3.904511198e-20
1.043497622e-20
1.889849118e-21
6.121782023e-21
4.658455793e-21
8.19482006e-21
3.472062387e-21
2.422633213e-21
3.453784209e-20
1.641106218e-20
1.333135058e-20
3.450744232e-20
1.54463723e-21
1.466255281e-20
9.17502935e-22
3.543042026e-20
1.14462457e-20
1.756349796e-20
4.293734813e-20
1.095827489e-20
2.916928148e-20
3.393585339e-20
9.502916411e-21
2.061208232e-21
7.004880782e-21
8.083891264e-21
3.97429484e-22
8.685834579e-21
1.130293885e-20
1.220920388e-20
2.798026353e-20
5.076653517e-20
4.875848579e-22
6.541703237e-21
5.053418293e-20
3.097198231e-21
2.33828932e-20
5.238387365e-21
6.979564695e-21
3.039509976e-20
2.769020131e-20
1.361958176e-20
5.035698553e-21
4.814198566e-21
2.223376123e-21
1.477589455e-20
2.747573747e-20
6.053557967e-21
2.657549606e-20
1.380977384e-20
6.97966261e-21
3.554914731e-20
6.647879072e-21
4.996431371e-21
1.251744058e-20
6.809729885e-21
2.250998259e-20
1.593776206e-20
3.34298663e-21
1.123160724e-20
4.306048356e-20
3.888166915e-20
1.421298449e-20
4.45009998e-20
5.602223933e-22
6.394751536e-21
1.125122167e-20
2.059368827e-20
1.694536901e-20
1.094635158e-20
1.950466171e-21
3.618922804e-20
2.18848757e-20
2.880110375e-20
1.015143094e-20
4.322195492e-20
8.828660908e-21
7.025331228e-21
1.763803453e-22
5.467146931e-21
1.015995521e-20
1.131248535e-20
4.171969965e-21
2.810962416e-20
8.431706315e-21
6.976175994e-20
2.759776021e-20
2.88132071e-21
3.198019439e-21
8.806620886e-20
2.747309031e-20
6.463259474e-22
5.659511186e-21
3.1382424e-21
1.844728382e-20
8.842130693e-21
5.669924871e-20
3.379645044e-20
1.541183652e-20
9.207858243e-21
4.718759795e-20
6.771157565e-21
7.12969251e-21
9.421960587e-24
7.352355222e-22
3.928097185e-20
1.47132884e-21
2.062685524e-21
1.163167664e-21
3.329618072e-20
4.538653134e-20
9.912520703e-23
6.624684209e-21
2.134723368e-20
1.019106278e-20
9.509417936e-21
1.960420346e-20
1.180198228e-20
7.703782474e-21
7.518993876e-21
1.232400968e-20
2.483516916e-20
1.497058759e-20
1.760258897e-20
3.292940796e-21
1.974129803e-20
1.12727067e-21
9.475420496e-21
7.407607216e-21
1.918873342e-21
6.100288165e-20
1.36813731e-20
9.362739676e-21
2.163539583e-20
1.807226283e-22
5.675168352e-21
2.773676116e-20
1.320350663e-20
5.206599498e-21
1.463194118e-20
1.162511501e-20
1.864142291e-20
8.9784751e-21
8.054016293e-21
1.546231917e-19
6.50550863e-20
1.78952384e-21
5.485079325e-20
2.355293197e-20
5.627934903e-20
5.845992678e-21
2.385646344e-20
5.373747759e-20
9.949933766e-21
6.184364433e-21
5.409624635e-21
1.712863504e-20
2.467687055e-20
2.939491335e-20
2.843567723e-20
1.964524324e-21
1.763712699e-21
8.911927081e-21
4.998373884e-21
7.163158377e-21
8.093657256e-21
5.807876612e-20
8.307806598e-21
5.228570811e-20
1.200354932e-20
2.356126071e-20
4.846100512e-21
8.157809952e-21
9.74636166e-21
7.641344503e-20
1.379255044e-20
3.001485954e-20
5.11074814e-21
7.145238312e-20
7.918681803e-21
5.876006955e-21
2.428211173e-20
1.406415261e-20
3.182536335e-21
1.6909144e-20
6.001445823e-21
1.004297294e-19
6.439142444e-20
1.854290968e-20
4.977753119e-20
1.374655384e-20
5.022800304e-20
1.317257762e-21
2.389529759e-20
3.682387153e-20
1.424632293e-20
4.471083862e-21
2.919834271e-20
3.704941809e-20
2.239845858e-20
1.506927843e-20
1.254926727e-21
1.19623372e-21
3.208443432e-21
2.260895742e-20
1.078511702e-21
1.160270995e-19
3.373662751e-21
1.494907223e-20
6.457136232e-21
2.410598937e-20
5.050083424e-21
1.989379771e-20
1.922065157e-20
3.908810208e-21
6.91863321e-21
4.820490298e-21
1.895210568e-20
2.002514281e-20
2.465635659e-20
3.165867352e-21
1.987936729e-20
4.833178627e-20
2.575608517e-21
4.377926397e-21
2.417299896e-22
3.298856753e-20
1.424473739e-20
7.280266325e-21
5.878893996e-21
7.416087114e-21
7.92535043e-21
2.823023208e-20
6.629165492e-21
2.281330135e-20
3.978280299e-22
2.261353152e-21
3.402570353e-20
9.622833766e-20
1.189462362e-20
1.483885813e-20
6.199148383e-20
2.670899056e-20
1.626647962e-20
4.00020829e-21
1.954649957e-20
3.675371937e-20
1.57530975e-21
8.66323626e-21
3.138983304e-20
6.314157349e-21
3.879257621e-20
1.207522443e-20
3.543867448e-20
1.332869588e-20
6.433051102e-21
9.799900517e-21
7.958122371e-21
1.113298556e-20
2.01448543e-22
4.495931732e-20
4.391327136e-21
2.322797727e-20
2.098921645e-20
2.013868386e-20
3.837216219e-20
4.680178199e-20
1.57208818e-20
3.042674512e-20
1.217483761e-20
5.935999024e-20
1.01024294e-19
8.435093968e-21
1.823289626e-20
1.45603011e-20
9.770414012e-21
8.476281423e-22
6.81775783e-21
1.209280721e-21
6.53783221e-20
7.055601292e-21
1.127202911e-20
3.020458536e-20
1.733288682e-20
2.908600711e-21
2.557114106e-20
1.207655891e-19
1.327176739e-21
2.655324187e-20
3.401051003e-20
4.290254722e-20
1.040774038e-21
1.663204041e-20
6.031503979e-21
6.790051462e-21
4.421211401e-20
1.582167035e-20
2.762466022e-21
7.624279802e-21
2.118187069e-20
8.463378835e-21
1.810610287e-20
6.680170025e-20
3.246804285e-21
2.206434281e-20
2.036959389e-20
1.031042055e-20
1.917357553e-20
3.98403425e-21
8.872810511e-21
9.419434865e-22
2.389370608e-20
4.138489474e-20
2.635805477e-21
3.393876231e-21
2.632021584e-20
3.051781163e-21
1.229175789e-20
4.065915175e-20
9.514793912e-20
1.93588949e-20
2.603045047e-21
1.394220439e-20
4.325051284e-21
1.004024762e-21
4.395477327e-20
1.908846656e-20
1.885747448e-21
2.367366107e-20
5.796384448e-21
1.884446742e-21
4.185716541e-21
4.080584734e-21
1.329972614e-21
5.408445794e-20
1.319222914e-20
8.408384018e-21
2.672144623e-20
1.077136244e-20
1.811088466e-20
7.767871119e-21
3.340954058e-21
4.799582155e-21
2.636902253e-20
2.538845247e-20
5.431617035e-20
4.458906256e-20
1.899687473e-20
8.569861093e-20
1.598701299e-20
4.016017277e-20
6.534339836e-20
1.5021621e-20
1.174139304e-21
7.911890131e-22
1.242216999e-20
7.659582005e-21
1.766273215e-22
6.064029887e-21
1.179872243e-20
3.873840189e-21
5.541874781e-22
1.195909464e-22
1.108294316e-20
8.24356968e-21
1.645018435e-21
2.349342118e-20
2.355706613e-21
6.786713266e-21
5.248315658e-21
2.853709496e-21
2.29663284e-20
1.652806269e-20
6.161243557e-20
8.839010856e-22
1.557436648e-20
5.397357724e-21
2.534748732e-20
6.553192246e-21
1.27495342e-20
2.572621786e-20
5.784513786e-21
1.347793041e-20
4.362206625e-20
1.593059468e-20
5.999183694e-21
3.845813122e-20
3.197576729e-20
1.600593666e-20
2.043279893e-21
4.391507937e-21
2.6603324e-21
1.046606959e-20
6.765267867e-21
1.319080189e-20
2.596263048e-21
5.235936983e-21
5.698595311e-21
1.572940377e-20
5.813911341e-20
2.708702729e-21
2.657441909e-21
6.999002497e-21
1.627089847e-20
1.406410326e-20
2.683293825e-21
3.714501445e-22
3.566593989e-20
4.833388701e-20
2.185326902e-20
1.058997792e-20
2.562282011e-22
8.073198138e-21
1.654706308e-20
5.588626006e-21
3.108109253e-20
8.447762834e-22
3.155587385e-21
3.480145941e-20
3.413094348e-21
2.337674643e-20
1.05451505e-21
1.371376459e-20
8.045156269e-21
1.99008273e-21
4.013243618e-20
1.777888436e-20
1.277933789e-21
1.271179678e-20
3.034712626e-21
3.873439578e-20
7.117155469e-21
4.87954975e-21
2.127355976e-21
4.972911675e-21
8.221197932e-21
1.857374471e-20
4.157904672e-21
2.388347339e-20
4.654881209e-21
1.623530728e-20
2.861523203e-21
2.722780527e-20
6.91968682e-21
1.157302531e-20
1.596941678e-21
7.377238186e-21
1.545737109e-20
2.638277849e-20
7.881373976e-21
1.619662784e-20
2.308413692e-21
1.329724773e-20
1.387793653e-20
2.560725571e-21
4.002788832e-20
9.065296564e-21
1.311747352e-20
5.014958816e-21
2.704678911e-20
6.592326941e-21
1.269854003e-20
2.528426082e-20
5.331045089e-22
3.227051536e-20
5.314348714e-20
6.698773184e-21
8.42101291e-22
2.886285999e-23
5.521492323e-21
3.193316868e-21
1.287311472e-20
7.535060649e-20
1.754586491e-20
4.510003402e-21
1.112703305e-20
2.269452639e-20
2.709644654e-20
5.687989874e-20
1.095889689e-20
4.000630271e-21
1.55532124e-21
2.455138671e-21
7.802581223e-20
4.448856763e-21
8.976557553e-21
8.438776068e-21
1.940006757e-20
4.182479499e-21
2.508668737e-20
7.124112644e-21
1.775934913e-20
1.645869805e-20
3.484215919e-21
3.523375854e-21
4.673590628e-20
1.408924843e-20
1.772291865e-20
1.62113888e-20
2.134551596e-23
1.402061694e-20
8.79030356e-21
1.202383759e-20
6.822234235e-21
1.116875042e-20
2.707926399e-21
8.916122022e-21
1.139610832e-20
2.214326237e-20
1.350282816e-20
4.054635962e-22
4.535516835e-21
1.36112552e-20
1.024145832e-20
3.713969419e-23
3.078510169e-21
1.636756554e-20
1.416847584e-20
1.598181688e-21
2.193974836e-21
1.053893767e-20
8.459184427e-21
4.577749715e-21
2.576800545e-20
2.500888876e-20
5.251855996e-21
1.471393867e-20
1.156902097e-19
5.035533657e-21
2.237516472e-20
1.496308166e-20
2.013087768e-20
9.997440233e-21
2.462458737e-20
4.067966122e-20
8.579627907e-21
1.968251184e-20
1.591526239e-21
3.545446781e-20
5.331951166e-22
3.953661434e-20
4.357736202e-21
3.856450846e-20
3.890580464e-20
5.48182176e-21
3.871920262e-20
3.598888145e-21
1.576758838e-20
2.645677107e-21
2.608114854e-20
4.197407992e-21
3.152862924e-20
2.596232905e-21
9.69022005e-20
1.127136681e-20
2.356260947e-21
4.898825915e-21
2.253401757e-20
6.472974497e-21
2.343043633e-20
1.703798444e-21
1.530135936e-20
6.473312519e-21
3.38207752e-21
1.168532108e-20
2.448532565e-20
1.352090703e-21
8.360577194e-21
2.127692938e-20
4.371811862e-20
1.873319945e-20
1.242894887e-20
7.07973958e-21
1.341604888e-20
2.122842394e-20
3.130561793e-21
9.519203927e-21
3.10364304e-21
4.078506425e-20
5.552645245e-21
7.699184054e-20
2.330292373e-21
1.838594995e-21
1.556475919e-20
5.243527369e-21
8.696694785e-21
2.964197921e-20
3.144419418e-20
1.926020886e-20
3.042957151e-20
1.427493752e-20
4.745369275e-20
5.023025504e-20
4.329375876e-20
7.861096371e-21
5.596310255e-21
3.793734877e-22
4.5810326e-21
1.783016568e-21
5.333392241e-22
4.338741601e-21
1.906506126e-20
4.667115129e-20
3.253828073e-20
5.253672888e-21
4.952566644e-21
2.505617311e-20
1.907362138e-20
2.035836956e-20
3.266319314e-20
2.568350861e-20
5.542625301e-20
5.666138222e-21
1.673938309e-20
5.806152712e-20
6.184497887e-21
1.830292809e-21
7.88215044e-21
7.028133585e-21
2.25942182e-20
2.519748121e-21
1.803031794e-20
8.339197533e-21
2.221775392e-21
2.84876074e-20
1.493309214e-19
1.176969663e-20
4.796150514e-22
2.853200022e-20
2.110655031e-20
4.044062472e-20
1.08789354e-20
6.990405817e-21
5.816926077e-21
1.778697673e-20
5.275876712e-20
1.58117593e-21
2.022638088e-21
2.24727527e-20
1.007858201e-21
3.522252247e-21
2.74606136e-21
1.601368894e-20
5.151826322e-21
1.127670017e-20
9.152905396e-20
1.253813951e-20
4.853152066e-20
1.0820294e-20
1.971693367e-20
3.827137746e-20
3.371957507e-21
7.913260635e-21
3.599393239e-20
4.141768848e-20
2.092015763e-21
5.537385165e-21
4.158135135e-20
2.23357004e-20
4.423265675e-21
2.454991144e-21
3.234454198e-20
2.281408829e-20
4.178015366e-20
1.26988193e-20
5.205252141e-20
1.019402776e-20
1.395027491e-20
8.72534082e-20
2.143070121e-21
7.32606339e-20
8.631735668e-21
1.658091258e-20
2.583892194e-20
1.141855356e-20
2.534083215e-20
8.23794147e-21
9.677182918e-21
2.288989805e-21
2.779946163e-20
3.185268042e-20
5.030629919e-20
4.796731754e-21
1.643538648e-20
2.110187705e-20
2.508906512e-20
4.35628839e-21
1.101971549e-21
1.806163809e-20
9.379202983e-21
1.160645825e-20
8.350573348e-21
3.841235218e-21
5.83356185e-21
2.559186349e-20
6.800667489e-21
5.831686837e-21
3.003991769e-20
6.094055062e-20
9.269888946e-21
3.596237902e-20
4.333179238e-20
9.107428988e-21
9.65014813e-22
5.883526875e-21
2.762189933e-20
2.016199781e-20
1.75977515e-20
6.815871611e-21
6.87199484e-21
3.342924935e-20
3.895694342e-20
1.551869661e-20
4.758321076e-21
4.414929623e-20
5.084232188e-20
8.696791709e-21
8.127628812e-21
1.335595813e-20
3.189055768e-20
4.652912556e-21
2.180779473e-20
6.126726082e-21
5.787245783e-20
3.004388369e-20
3.043020547e-20
1.854051824e-21
8.094341186e-21
8.000454228e-21
1.629238828e-20
3.686463163e-20
8.641573922e-21
1.082319713e-20
5.659929561e-21
3.17495777e-21
5.771210472e-20
1.000239049e-22
1.670566231e-21
2.79995142e-21
4.177535667e-22
6.007355211e-20
7.37986927e-21
4.233061374e-21
3.988323255e-21
1.087338697e-20
3.319706664e-20
3.463855354e-20
2.142228332e-20
7.858042123e-21
2.251294584e-20
3.364358209e-20
6.80241147e-22
8.86093396e-21
3.886166633e-20
1.021361198e-20
3.705668845e-20
2.662958849e-20
6.861833779e-20
4.434795073e-21
3.268570652e-20
1.412518649e-20
1.786111417e-20
3.130386383e-20
9.740846527e-21
1.273900909e-20
6.508071039e-21
1.040546878e-21
8.48960089e-20
6.298932325e-21
1.41408182e-20
8.384059344e-21
2.029178801e-20
2.045136907e-20
8.533967778e-21
1.040648863e-20
4.730403357e-21
3.163381453e-20
6.958855763e-22
4.848746816e-20
8.652948218e-21
1.12789416e-21
3.078155573e-21
8.6938311e-21
6.088324498e-21
3.024780393e-20
1.913051069e-20
2.436448726e-20
1.487106043e-20
3.103581e-20
3.976695808e-21
8.00142091e-21
7.362156256e-21
4.995187105e-21
1.89269256e-20
2.501359848e-22
1.257587114e-20
1.194475659e-20
6.623257955e-21
2.433844025e-20
7.607549145e-20
1.362258443e-20
1.543404569e-20
1.036014859e-21
8.709560414e-23
4.912179488e-21
1.953567644e-20
3.265054831e-21
3.568237772e-20
7.277239136e-21
2.116015735e-20
2.619330921e-22
1.125626409e-20
9.521441334e-21
2.601953774e-20
2.302141902e-21
2.827030834e-22
1.712991262e-20
8.149424117e-21
5.474089658e-21
5.065785472e-22
9.182304657e-21
4.503386462e-21
4.948232277e-20
1.764413498e-20
7.377779037e-21
1.224969686e-20
7.068546004e-20
5.187068201e-21
7.426916489e-21
4.41648193e-21
2.503644074e-20
1.729236781e-20
3.976000385e-21
3.31515555e-20
4.684253829e-21
2.509273629e-20
1.795359958e-20
1.276845041e-20
5.054454639e-21
3.713465001e-21
1.505610739e-20
2.845938947e-20
1.61078314e-20
1.846662456e-21
3.062734299e-20
1.646228205e-20
9.371348325e-21
5.975402879e-20
2.230690613e-21
7.47392772e-21
5.176945258e-20
2.056104827e-20
4.079880346e-21
5.135269827e-21
1.287193099e-20
3.581861895e-20
1.244457765e-20
5.808240708e-22
6.308473754e-21
1.896618735e-20
7.629157771e-20
2.560003704e-20
5.175201928e-21
2.871579925e-20
7.397227108e-21
2.428226917e-20
7.41967935e-21
5.966724836e-21
5.907503402e-21
1.036526137e-20
8.892835719e-21
3.992643384e-21
7.694890263e-21
3.541805484e-20
5.565203865e-22
9.160370755e-21
1.647099667e-20
2.978359062e-20
7.807415428e-21
7.185721651e-21
5.329253651e-20
1.53179181e-21
5.560363937e-22
5.315063117e-22
4.40081105e-21
3.92342498e-21
7.688862607e-22
4.177183722e-20
2.800253183e-20
1.041654853e-21
5.094875898e-22
3.854981634e-21
4.161208313e-22
5.698014976e-21
1.652366545e-20
6.627236702e-20
2.208833122e-20
1.043616434e-21
1.569036612e-20
1.123059836e-20
8.251871511e-22
2.199558974e-21
1.037256282e-21
1.896706975e-22
1.104721211e-20
3.832512052e-21
5.129408002e-20
1.167162344e-20
1.934024358e-21
4.248134732e-21
2.105741177e-20
2.180721818e-20
3.029594377e-20
4.412917551e-20
9.837646936e-21
4.637599271e-21
2.860314564e-20
2.273282952e-21
2.726500988e-20
2.358866989e-20
3.78691547e-20
1.093014667e-19
8.050612769e-21
2.1777962e-20
2.853159672e-20
2.610611393e-21
9.972590605e-22
1.449677431e-20
2.07767559e-20
2.229813151e-19
4.026639961e-22
7.327178336e-21
5.671704211e-21
4.944644106e-20
3.789889099e-21
6.634866095e-21
1.8143523e-20
2.846202419e-21
4.066063624e-20
5.097513908e-21
4.902999721e-21
3.997661114e-20
1.456225545e-20
1.604471991e-20
1.501526241e-20
4.05112164e-20
1.86383099e-20
3.527678649e-23
1.750463528e-21
3.024195405e-20
2.085446115e-21
3.462751425e-21
1.362928821e-20
1.883020034e-20
3.323883834e-20
3.356886053e-20
2.598497515e-20
8.863417912e-21
3.493880494e-21
1.552219632e-20
8.28042003e-22
1.536319656e-20
2.385351015e-21
8.363170725e-21
3.562007276e-21
1.424286995e-20
4.531042378e-20
4.991298786e-21
2.490922094e-21
1.257778729e-19
9.819571729e-21
1.305062881e-20
6.62887668e-21
3.143972382e-20
4.62150628e-21
1.318745804e-20
3.520620946e-21
9.583440854e-21
1.153544996e-20
8.885743878e-21
8.919518265e-21
4.983766953e-21
4.638590233e-20
5.741768048e-21
1.746109178e-20
5.742499165e-21
1.70575955e-20
1.303051502e-20
1.029028152e-20
5.603929931e-20
2.046460733e-20
7.874329239e-21
1.414238133e-20
1.841539635e-20
1.966807403e-20
8.04930064e-20
1.34254148e-20
2.610881156e-21
1.918520261e-20
2.920828333e-20
1.08694217e-20
6.19326746e-21
5.652077323e-21
6.604596538e-21
2.843407134e-20
2.899571182e-20
3.825727135e-24
3.082020537e-20
8.909258656e-20
4.080747419e-21
1.923342683e-21
6.691165159e-20
7.016797889e-21
4.070250134e-21
2.723332727e-21
8.568376078e-21
1.331667581e-20
4.035169938e-20
5.528893299e-20
3.406324176e-21
4.704684486e-21
4.053412542e-22
2.616882009e-20
3.582732706e-20
5.467122383e-20
1.883452323e-20
1.766017086e-20
1.505298278e-21
1.247607348e-20
1.285799658e-21
3.130941679e-20
2.7413855e-20
1.267051166e-20
6.947208599e-23
3.58341888e-21
1.634674637e-20
1.238080492e-20
4.771885225e-21
2.326274477e-20
1.79959346e-20
4.229986442e-22
6.473936213e-21
4.802064467e-21
2.454352379e-21
5.091325585e-20
6.637689986e-21
3.633200482e-21
8.998628606e-21
4.521550254e-21
3.33007558e-20
2.306078508e-20
2.100712996e-20
1.353806002e-20
8.417748806e-21
1.331494374e-20
4.668944299e-20
8.433708962e-20
2.057735372e-20
2.827032764e-21
1.483310542e-20
1.070283281e-20
6.890592748e-21
5.074041853e-21
2.362349864e-20
5.958783848e-22
4.525253959e-22
1.797431332e-20
7.659868867e-21
1.651491513e-21
7.581176424e-20
8.208379742e-21
4.64222604e-20
2.141790136e-21
3.237906658e-20
9.397228371e-22
3.587643873e-20
3.592167286e-20
5.086638486e-21
4.494687335e-21
6.460818468e-21
1.033402719e-20
1.846085731e-20
2.151244055e-21
9.079717741e-21
2.128049469e-20
2.0094186e-21
5.712441614e-21
6.334895627e-21
1.674219087e-20
7.523806029e-21
3.095478002e-20
5.28457798e-20
4.518116926e-20
3.503977245e-21
2.816455957e-20
8.1200914e-21
2.169205538e-20
1.239748529e-20
2.452286562e-20
8.044248838e-22
4.880348393e-20
3.709333342e-20
3.038356899e-20
8.470531264e-21
7.801673266e-22
1.808872544e-20
1.615713108e-23
9.708673034e-21
2.762498789e-20
1.173478882e-20
4.041009278e-20
2.297013225e-21
6.79366937e-21
4.453865725e-20
8.516185648e-20
3.977172957e-20
2.524988518e-20
1.191847226e-20
6.40219292e-23
3.403025608e-20
4.225458266e-20
5.071932e-20
9.422462367e-21
1.02329891e-19
4.579993299e-21
1.276809253e-20
1.827866712e-21
2.16107858e-20
1.392142683e-20
1.362896603e-21
3.674348212e-21
4.852867275e-20
3.501843877e-20
2.3756325e-20
8.567605762e-21
5.83973295e-21
2.93292739e-21
2.37690466e-20
2.084163168e-20
1.678700358e-19
8.223464901e-21
2.879382878e-21
6.119148377e-21
7.318523255e-21
2.01609716e-20
1.442935264e-20
3.127116676e-21
3.471841274e-20
3.754502268e-20
5.716336893e-21
9.4854981e-21
1.285962018e-20
4.129118106e-21
4.557820472e-20
1.018633733e-20
5.844222528e-20
2.169616609e-20
6.958038573e-21
3.032466675e-20
9.667766833e-21
1.365580421e-20
3.568659046e-22
2.805576079e-21
4.460255348e-21
3.544428023e-20
4.130512304e-21
1.435805437e-20
6.955294846e-21
7.672226856e-21
3.50274802e-20
4.244849536e-21
2.281818029e-20
6.179400301e-20
1.372973542e-22
2.425722136e-20
1.349280839e-20
1.947128167e-21
3.590305527e-21
2.296096512e-21
2.838275806e-21
1.253727773e-20
3.070870378e-22
4.471645216e-20
6.981794263e-21
2.226922235e-22
2.882513147e-22
2.182611211e-21
5.788925669e-21
2.35320712e-20
8.608530094e-21
5.796105785e-21
1.570580481e-20
2.731340306e-20
2.391438213e-20
1.436087374e-20
6.382078706e-21
8.834309794e-22
5.561115584e-20
2.414761216e-21
2.119231455e-21
4.022327017e-20
4.123936353e-21
2.69686618e-20
4.64730654e-20
5.755834842e-20
1.886814429e-20
1.203518822e-19
1.722483611e-20
1.818455088e-20
3.183411023e-20
8.604871918e-21
5.594223551e-21
2.446301675e-20
4.645819232e-21
5.03583e-21
2.485980215e-20
2.73653612e-21
1.233895951e-20
1.431652564e-21
3.151451616e-20
2.694422118e-20
2.339324605e-21
1.045162239e-19
2.422810975e-20
4.839147907e-21
1.392288149e-20
2.779038273e-20
1.374500721e-20
9.749796275e-21
3.994055222e-21
1.464080716e-20
1.243678135e-21
6.286742372e-21
2.764524106e-21
3.113548296e-20
4.612157726e-21
9.557145775e-20
1.072061394e-19
2.499629799e-21
1.50887136e-20
1.069390472e-20
2.579492631e-21
2.971614601e-21
3.662195975e-20
5.009749747e-20
2.961919758e-21
1.165060359e-20
3.275061245e-20
6.500527088e-21
1.009286577e-20
2.625487786e-20
1.119566116e-20
4.802070416e-21
1.266195278e-20
6.69432441e-21
5.89467971e-20
1.076362795e-21
3.878185196e-20
6.105913869e-22
1.230872851e-20
1.128871061e-20
5.644376418e-21
3.234020557e-20
1.947928368e-20
1.384946185e-20
2.444488568e-21
1.581697142e-20
2.056687595e-20
1.708870259e-20
1.171904543e-20
6.2747233e-22
1.393184642e-20
3.316596781e-20
2.167486261e-20
3.223446627e-20
1.017410894e-20
1.200720168e-19
1.091196288e-20
3.533445866e-20
3.265712755e-20
3.579247711e-20
3.656959022e-20
6.093971176e-22
1.138027984e-21
1.325168923e-20
1.98866487e-20
2.00659307e-20
3.110589304e-21
1.44812284e-20
2.573908691e-20
1.770680634e-21
1.135024998e-21
3.076412552e-20
1.878945703e-20
9.031701154e-23
6.228839358e-20
1.793905619e-21
2.200017791e-20
2.556130737e-22
4.056202148e-20
5.255674049e-20
3.297365563e-20
4.309188117e-21
5.269630771e-21
8.242818525e-20
3.870659093e-21
3.996556371e-20
4.929601863e-20
2.149009348e-20
2.216138316e-20
1.997091456e-20
6.044969453e-20
2.793450453e-20
5.630206951e-21
1.604054238e-20
1.038328297e-19
3.119359678e-21
5.211778349e-21
4.295701595e-20
2.585039653e-20
5.702392999e-20
1.194155384e-21
7.711343901e-21
6.172381264e-21
3.762835804e-20
2.889860387e-21
1.319158098e-21
3.878747118e-20
7.3362844e-21
6.574894675e-21
1.213878549e-20
2.094477413e-20
7.831527811e-22
5.167034024e-22
2.626463464e-21
9.136970524e-21
1.261875528e-20
2.649490951e-20
2.021800355e-21
3.303665718e-21
6.455099347e-21
2.184160699e-20
3.096740867e-20
1.538080016e-20
1.89281453e-20
5.046046887e-21
5.938452998e-20
1.29012665e-20
9.687075868e-21
4.075806209e-21
4.32512085e-21
2.538917545e-21
8.316930935e-21
4.575786667e-21
8.630896917e-22
4.943457055e-21
1.243233097e-20
1.138450593e-20
4.489016147e-20
1.414869703e-20
1.391628271e-20
1.826126615e-20
1.097014886e-20
1.439516266e-20
3.115123112e-20
3.026075295e-20
3.196805685e-20
9.85239478e-20
3.055736536e-21
3.872194392e-21
3.336861456e-22
3.562039554e-20
1.626373459e-20
1.682557218e-20
4.227406219e-21
3.383191739e-20
1.232309679e-20
1.251242575e-21
1.054344684e-20
9.984076098e-22
1.043807849e-20
1.734571454e-21
1.438988158e-20
5.094374307e-21
3.117569655e-21
9.061762013e-21
6.519801943e-21
4.28151544e-21
1.158108072e-20
1.375420447e-20
6.155785807e-21
2.211124814e-20
2.44860865e-21
3.805099955e-20
4.175385742e-20
4.706926156e-21
1.749446683e-20
1.545933351e-19
3.149550103e-21
1.010169927e-20
4.969299682e-20
2.635100282e-20
1.614716556e-20
2.390147191e-22
1.508867381e-20
3.876107982e-21
3.568324153e-22
1.688585034e-20
1.236387301e-20
4.854975181e-20
3.889903884e-22
6.486716261e-21
5.07698865e-22
2.965045601e-20
9.044922053e-21
1.494196137e-20
8.194861189e-21
5.820411112e-21
6.375350317e-21
9.173146518e-21
8.463407635e-21
2.952704423e-20
8.046263088e-21
7.610370539e-21
3.742233038e-20
2.857022184e-20
3.948207638e-21
3.174127891e-20
1.192244899e-22
1.537921133e-20
1.475829346e-20
1.911843177e-20
2.189407785e-20
2.547237266e-20
3.54572503e-20
9.198633354e-21
3.488211338e-20
4.954944694e-20
1.51860532e-20
1.837219844e-21
2.553554015e-20
2.267492003e-21
1.37196894e-20
1.011206586e-20
3.833208281e-20
2.670866023e-20
3.517485638e-20
9.009513767e-21
3.105615961e-21
2.309092013e-21
3.546160818e-21
2.889247218e-21
5.24602892e-21
9.578154217e-21
3.013847643e-20
2.558063228e-20
5.185924908e-21
5.995458937e-21
2.193290894e-20
1.744821347e-20
5.605896801e-23
4.136583577e-21
1.085951338e-20
2.050841137e-20
1.646095985e-21
1.618437489e-20
1.505231449e-20
1.600342463e-20
1.123990447e-21
5.88479032e-21
5.05931019e-21
2.141132501e-20
5.238056407e-20
1.062794692e-20
6.462373864e-21
3.26156272e-21
5.412378629e-21
6.603312019e-22
8.494705155e-20
9.876780252e-21
2.224143166e-20
2.868289596e-23
1.772683232e-20
3.277186459e-21
4.858049868e-21
1.584887057e-20
2.614967155e-20
4.523550935e-22
2.096964192e-21
2.652005521e-20
1.38992718e-20
2.870221984e-20
2.410991336e-20
1.161212913e-21
3.480078154e-22
1.244083012e-19
1.171557401e-20
2.601801682e-20
2.328674341e-20
1.271046236e-20
3.97626388e-21
1.152604715e-20
3.156406162e-20
4.084790423e-20
5.178193721e-20
9.929374953e-21
7.387043704e-20
4.078418903e-21
6.083033489e-21
1.815062353e-20
2.839526147e-20
6.65081408e-21
1.041240437e-20
9.615966904e-21
2.798265436e-20
8.16715574e-21
7.773638159e-20
4.550784396e-21
2.692154486e-21
3.193009269e-20
1.485044914e-20
1.994640321e-20
2.317125034e-20
4.842207108e-20
9.299625484e-21
1.705222554e-20
1.598656281e-20
1.034551141e-21
3.386130101e-21
7.147713923e-22
4.6777535e-21
8.40864706e-20
4.053146291e-21
5.193925705e-22
1.017123922e-20
8.263240153e-20
2.21231743e-20
2.826630316e-19
1.903918988e-20
3.311205476e-20
2.606156571e-21
1.437830801e-20
3.134684092e-21
2.53910652e-20
2.102936431e-21
1.575657113e-20
1.715562472e-20
1.922842611e-21
4.600346432e-20
6.677264326e-20
2.020832066e-20