/*--------------------------------*- C++ -*----------------------------------*\
| =========                 |                                                 |
| \\      /  F ield         | OpenFOAM: The Open Source CFD Toolbox           |
|  \\    /   O peration     | Version:  v1706                                 |
|   \\  /    A nd           | Web:      www.OpenFOAM.com                      |
|    \\/     M anipulation  |                                                 |
\*---------------------------------------------------------------------------*/
FoamFile
{
    version     2.0;
    format      ascii;
    class       labelField;
    location    "3.989/lagrangian/dsmc";
    object      origId;
}
// * * * * * * * * * * * * * * * * * * * * * * * * * * * * * * * * * * * * * //


68512
(
4385307
4404669
4463580
4496319
4498201
4498893
4499514
4505229
4505864
4506546
4509640
4520668
4527006
4536088
4536519
4537396
4540369
4541189
4542153
4542919
4542935
4543040
4545306
4547573
4547665
4547854
4548651
4549209
4549300
4550726
4551430
4552756
4553888
4554547
4554742
4556465
4556920
4557619
4557770
4558814
4559006
4559444
4560285
4560425
4560580
4561334
4561919
4562906
4563243
4563984
4564516
4566201
4566302
4566578
4567589
4567676
4568405
4569376
4569507
4569617
4569651
4569720
4570105
4570408
4570550
4570749
4570904
4572600
4572819
4573075
4573334
4574795
4575510
4576000
4577651
4578263
4578347
4578615
4579178
4579687
4580459
4580518
4580682
4581071
4581703
4581716
4582119
4583198
4583386
4583566
4583574
4583759
4584031
4584285
4584722
4584760
4585049
4585472
4585552
4585699
4585911
4585953
4587007
4587395
4587904
4587955
4587969
4588176
4588274
4588493
4589139
4589672
4590001
4590125
4590283
4590286
4590321
4590573
4590772
4590998
4591309
4591381
4591434
4591598
4591827
4592575
4592900
4593029
4593517
4593693
4594095
4594221
4594809
4594890
4595019
4595174
4595280
4595529
4595551
4596028
4596155
4596274
4596363
4597068
4597134
4597237
4597498
4597764
4597793
4597816
4597883
4598011
4598030
4598475
4598548
4598929
4599370
4599815
4599939
4600271
4600275
4600449
4600525
4600617
4600636
4600734
4601042
4601068
4601190
4601245
4601247
4601317
4601503
4601578
4601584
4601656
4601680
4601787
4601903
4601920
4602055
4602218
4602430
4602465
4602490
4602779
4602813
4603114
4603226
4603273
4603926
4604205
4604937
4605006
4605241
4605457
4605471
4605509
4605552
4605604
4605779
4606249
4606338
4606622
4607004
4607029
4607113
4608080
4608144
4608223
4608282
4608312
4608516
4608560
4608681
4608772
4608995
4609358
4609456
4609585
4609597
4609732
4609745
4609797
4610355
4610422
4610472
4610546
4610577
4610594
4610596
4610598
4610853
4610940
4610944
4611178
4611257
4611284
4611328
4611449
4611680
4611747
4611764
4611936
4612189
4612276
4612325
4612332
4613170
4613283
4613423
4613466
4613578
4613705
4614039
4614089
4614102
4614158
4614168
4614336
4614359
4614422
4614428
4614460
4614897
4615147
4615333
4615552
4615575
4615578
4615729
4615962
4615977
4616062
4616106
4616358
4616375
4616472
4616813
4616861
4617004
4617009
4617115
4617127
4617259
4617380
4617431
4617709
4617732
4617946
4618032
4618052
4618284
4618387
4618418
4618668
4618968
4618969
4619183
4619213
4619291
4619306
4619355
4619440
4619490
4619713
4619753
4619808
4619961
4620093
4620186
4620207
4620215
4620293
4620373
4620442
4620628
4620725
4620936
4620950
4621125
4621176
4621259
4621340
4621459
4621483
4621546
4621687
4621688
4621773
4621826
4622001
4622204
4622333
4622548
4622561
4622585
4622619
4622631
4622670
4622703
4623103
4623142
4623174
4623197
4623336
4623419
4623449
4623450
4623526
4623543
4623591
4623754
4623878
4623910
4623953
4623957
4623987
4624180
4624246
4624386
4624425
4624524
4624532
4624553
4624565
4624612
4624731
4625092
4625168
4625191
4625194
4625243
4625290
4625350
4625600
4625648
4625754
4625831
4625874
4625886
4625897
4625922
4626051
4626060
4626069
4626077
4626091
4626317
4626404
4626601
4626715
4626806
4626956
4626998
4627026
4627123
4627125
4627230
4627309
4627382
4627427
4627430
4627532
4627586
4627626
4627635
4627755
4627814
4627834
4627865
4627870
4627883
4627898
4627928
4627994
4627998
4628008
4628030
4628161
4628173
4628201
4628206
4628353
4628386
4628463
4628551
4628568
4628577
4628697
4628743
4628785
4628812
4628844
4628857
4629018
4629040
4629072
4629132
4629188
4629236
4629242
4629282
4629514
4629582
4629751
4629779
4629929
4629931
4629988
4629997
4630024
4630096
4630216
4630245
4630286
4630295
4630343
4630717
4630788
4630798
4630824
4630857
4630880
4630919
4630958
4630959
4631062
4631171
4631274
4631281
4631315
4631581
4631634
4631649
4631671
4631681
4631697
4631848
4631901
4631983
4632076
4632185
4632191
4632313
4632349
4632450
4632480
4632504
4632551
4632580
4632681
4632704
4632742
4632829
4632910
4632968
4632984
4632992
4632996
4633016
4633030
4633032
4633043
4633142
4633221
4633355
4633366
4633473
4633546
4633617
4633635
4633746
4633801
4633826
4633864
4633899
4633929
4634020
4634028
4634103
4634144
4634212
4634222
4634233
4634306
4634324
4634332
4634351
4634387
4634415
4634421
4634428
4634449
4634536
4634569
4634575
4634599
4634790
4634902
4634973
4635005
4635021
4635062
4635217
4635264
4635333
4635347
4635384
4635391
4635467
4635516
4635635
4635639
4635648
4635740
4635809
4635874
4635914
4635921
4635975
4635977
4635986
4635991
4636034
4636131
4636198
4636356
4636558
4636641
4636694
4636701
4636705
4636746
4636782
4636810
4636925
4637044
4637090
4637170
4637233
4637236
4637237
4637252
4637269
4637306
4637359
4637420
4637596
4637772
4637919
4638000
4638109
4638112
4638138
4638195
4638213
4638223
4638228
4638450
4638478
4638500
4638534
4638620
4638630
4638693
4638697
4638734
4638856
4639006
4639008
4639261
4639322
4639347
4639356
4639379
4639381
4639411
4639518
4639548
4639590
4639652
4639712
4639743
4639775
4639814
4639833
4639916
4639954
4639971
4639986
4640008
4640071
4640138
4640148
4640198
4640345
4640349
4640366
4640368
4640425
4640463
4640528
4640556
4640620
4640679
4640681
4640702
4640740
4640841
4640884
4640978
4641026
4641043
4641068
4641204
4641215
4641282
4641422
4641427
4641428
4641486
4641563
4641621
4641734
4641748
4641750
4641751
4641772
4641800
4641803
4641806
4641877
4641890
4641953
4642081
4642138
4642163
4642238
4642278
4642412
4642417
4642460
4642470
4642556
4642566
4642568
4642582
4642646
4642663
4642677
4642679
4642698
4642710
4642724
4642740
4642775
4642781
4642838
4642902
4643006
4643020
4643041
4643067
4643120
4643121
4643156
4643185
4643191
4643208
4643233
4643262
4643310
4643354
4643366
4643414
4643505
4643509
4643597
4643603
4643656
4643709
4643718
4643733
4643817
4643833
4643871
4643903
4643904
4643908
4643968
4643985
4644047
4644062
4644063
4644064
4644070
4644094
4644163
4644215
4644373
4644508
4644587
4644641
4644690
4644754
4644759
4644830
4644869
4644880
4644904
4644915
4644939
4644947
4644956
4644959
4644963
4645009
4645120
4645252
4645263
4645378
4645438
4645442
4645527
4645550
4645560
4645619
4645683
4645747
4645780
4645940
4646046
4646177
4646313
4646314
4646401
4646403
4646456
4646467
4646575
4646589
4646602
4646653
4646666
4646747
4646780
4646824
4646860
4646910
4646914
4646937
4646947
4646955
4647064
4647069
4647078
4647081
4647093
4647186
4647204
4647211
4647263
4647294
4647300
4647367
4647412
4647574
4647599
4647684
4647707
4647802
4647804
4647815
4647856
4647897
4647956
4647958
4647960
4647978
4648033
4648093
4648152
4648168
4648177
4648266
4648284
4648288
4648304
4648353
4648422
4648452
4648593
4648620
4648633
4648641
4648649
4648658
4648660
4648669
4648698
4648707
4648797
4648802
4648834
4648875
4648900
4648904
4648954
4649026
4649027
4649099
4649111
4649116
4649149
4649210
4649211
4649234
4649274
4649287
4649309
4649340
4649345
4649357
4649366
4649386
4649429
4649484
4649519
4649532
4649619
4649676
4649708
4649764
4649771
4649799
4649838
4649867
4649876
4649877
4649891
4649913
4649926
4649972
4650050
4650061
4650121
4650185
4650319
4650333
4650343
4650350
4650471
4650639
4650653
4650664
4650677
4650687
4650689
4650692
4650695
4650729
4650744
4650746
4650811
4650877
4650911
4650944
4650975
4651039
4651046
4651094
4651104
4651111
4651159
4651165
4651182
4651189
4651204
4651209
4651250
4651271
4651356
4651451
4651458
4651487
4651533
4651535
4651562
4651601
4651666
4651677
4651685
4651696
4651734
4651743
4651778
4651836
4651843
4651861
4651932
4651997
4652012
4652072
4652101
4652154
4652231
4652239
4652251
4652258
4652283
4652295
4652448
4652452
4652459
4652487
4652661
4652677
4652699
4652704
4652716
4652753
4652859
4652870
4652883
4652938
4652953
4653027
4653052
4653071
4653107
4653201
4653219
4653334
4653347
4653358
4653367
4653430
4653440
4653448
4653460
4653485
4653530
4653546
4653605
4653625
4653636
4653750
4653753
4653771
4653836
4653838
4653906
4653909
4653977
4653988
4654009
4654068
4654072
4654083
4654101
4654121
4654173
4654209
4654241
4654279
4654285
4654407
4654437
4654448
4654511
4654518
4654534
4654587
4654591
4654595
4654601
4654656
4654709
4654714
4654768
4654835
4654870
4654882
4654907
4654919
4654937
4654955
4654982
4654995
4655004
4655007
4655050
4655091
4655145
4655206
4655237
4655245
4655268
4655297
4655312
4655370
4655388
4655402
4655476
4655494
4655498
4655505
4655522
4655547
4655552
4655595
4655615
4655718
4655731
4655761
4655762
4655764
4655800
4655939
4655941
4655994
4655999
4656061
4656062
4656087
4656094
4656106
4656127
4656133
4656159
4656181
4656182
4656183
4656188
4656250
4656273
4656281
4656304
4656324
4656329
4656338
4656344
4656365
4656379
4656380
4656403
4656477
4656497
4656522
4656534
4656570
4656579
4656609
4656626
4656677
4656721
4656730
4656773
4656788
4656831
4656865
4656893
4656928
4656948
4656971
4656994
4656995
4657035
4657045
4657079
4657099
4657106
4657119
4657149
4657157
4657199
4657221
4657229
4657232
4657263
4657299
4657392
4657436
4657447
4657450
4657499
4657515
4657520
4657532
4657535
4657552
4657601
4657634
4657637
4657654
4657658
4657669
4657675
4657744
4657765
4657782
4657793
4657813
4657857
4657895
4657913
4657918
4657922
4657925
4657937
4657969
4657976
4657984
4657988
4658001
4658054
4658090
4658128
4658129
4658131
4658175
4658203
4658301
4658336
4658367
4658375
4658381
4658385
4658405
4658484
4658511
4658527
4658548
4658556
4658564
4658571
4658586
4658666
4658689
4658803
4658804
4658816
4658834
4658835
4658881
4658887
4658897
4658936
4658965
4658968
4659006
4659013
4659016
4659029
4659030
4659050
4659051
4659054
4659101
4659113
4659118
4659121
4659155
4659167
4659192
4659213
4659272
4659289
4659375
4659410
4659430
4659478
4659501
4659537
4659579
4659592
4659595
4659605
4659607
4659635
4659743
4659773
4659786
4659790
4659792
4659798
4659806
4659858
4659860
4659898
4659935
4659984
4660028
4660072
4660111
4660154
4660193
4660214
4660223
4660238
4660290
4660310
4660317
4660335
4660353
4660357
4660368
4660396
4660404
4660405
4660407
4660506
4660547
4660552
4660573
4660628
4660724
4660783
4660786
4660797
4660798
4660809
4660823
4660827
4660850
4660862
4660891
4660948
4660951
4660958
4660992
4660995
4661021
4661054
4661075
4661079
4661169
4661174
4661221
4661224
4661261
4661303
4661319
4661320
4661405
4661444
4661456
4661524
4661539
4661554
4661563
4661575
4661591
4661594
4661636
4661647
4661651
4661656
4661659
4661675
4661703
4661727
4661731
4661742
4661752
4661769
4661778
4661795
4661829
4661844
4661848
4661849
4661858
4661872
4661890
4661911
4661997
4661999
4662004
4662030
4662053
4662078
4662081
4662131
4662143
4662239
4662250
4662260
4662278
4662343
4662346
4662371
4662428
4662441
4662451
4662455
4662480
4662489
4662491
4662496
4662513
4662518
4662521
4662549
4662556
4662557
4662597
4662618
4662661
4662666
4662676
4662691
4662711
4662725
4662740
4662750
4662751
4662791
4662797
4662813
4662852
4662856
4662874
4662886
4662887
4662903
4662904
4662928
4663004
4663018
4663035
4663083
4663088
4663089
4663094
4663100
4663104
4663105
4663116
4663125
4663126
4663162
4663171
4663184
4663208
4663213
4663219
4663241
4663243
4663255
4663277
4663280
4663282
4663318
4663321
4663324
4663351
4663370
4663379
4663393
4663394
4663401
4663410
4663429
4663501
4663526
4663535
4663551
4663566
4663577
4663629
4663643
4663645
4663745
4663747
4663789
4663795
4663819
4663889
4663895
4663916
4663918
4663963
4664027
4664039
4664086
4664088
4664116
4664118
4664144
4664149
4664157
4664174
4664175
4664184
4664194
4664201
4664240
4664258
4664262
4664305
4664316
4664338
4664370
4664381
4664396
4664441
4664491
4664507
4664517
4664525
4664561
4664602
4664608
4664610
4664634
4664645
4664689
4664697
4664720
4664739
4664744
4664774
4664782
4664803
4664827
4664905
4664912
4664937
4664955
4664961
4664971
4665018
4665028
4665045
4665063
4665081
4665099
4665104
4665136
4665150
4665153
4665172
4665196
4665213
4665245
4665259
4665288
4665301
4665315
4665332
4665350
4665353
4665381
4665401
4665428
4665433
4665438
4665483
4665498
4665516
4665530
4665579
4665595
4665609
4665668
4665675
4665716
4665756
4665766
4665772
4665805
4665831
4665838
4665848
4665849
4665862
4665871
4665885
4665907
4665943
4665950
4665952
4665960
4665974
4666006
4666008
4666085
4666125
4666162
4666165
4666198
4666231
4666236
4666246
4666257
4666297
4666298
4666313
4666327
4666336
4666358
4666384
4666442
4666459
4666472
4666482
4666493
4666496
4666498
4666505
4666583
4666594
4666595
4666600
4666617
4666636
4666655
4666660
4666681
4666682
4666696
4666719
4666741
4666827
4666843
4666902
4666954
4666972
4666983
4666989
4667074
4667078
4667079
4667080
4667090
4667106
4667123
4667134
4667158
4667166
4667177
4667197
4667221
4667224
4667238
4667260
4667262
4667309
4667310
4667336
4667340
4667385
4667403
4667415
4667450
4667453
4667470
4667472
4667508
4667518
4667539
4667547
4667563
4667575
4667584
4667598
4667605
4667654
4667657
4667658
4667691
4667696
4667702
4667753
4667808
4667817
4667820
4667821
4667825
4667844
4667854
4667873
4667877
4667903
4667910
4667916
4667921
4667938
4667950
4667966
4667968
4668009
4668015
4668029
4668039
4668045
4668103
4668125
4668151
4668182
4668183
4668197
4668258
4668260
4668303
4668338
4668355
4668417
4668473
4668479
4668482
4668499
4668552
4668566
4668570
4668605
4668616
4668621
4668623
4668627
4668701
4668703
4668723
4668726
4668750
4668761
4668781
4668782
4668784
4668797
4668800
4668837
4668841
4668843
4668857
4668858
4668954
4668968
4668981
4668984
4668991
4669040
4669044
4669046
4669056
4669066
4669073
4669112
4669159
4669163
4669171
4669172
4669176
4669180
4669201
4669217
4669229
4669238
4669282
4669349
4669351
4669419
4669420
4669424
4669442
4669443
4669485
4669490
4669505
4669508
4669509
4669521
4669522
4669538
4669543
4669550
4669554
4669560
4669575
4669583
4669597
4669625
4669634
4669637
4669682
4669685
4669689
4669690
4669733
4669736
4669744
4669757
4669791
4669812
4669821
4669842
4669873
4669882
4669887
4669907
4669909
4669919
4669952
4669993
4670013
4670024
4670082
4670109
4670114
4670162
4670209
4670263
4670287
4670289
4670310
4670321
4670331
4670347
4670384
4670394
4670407
4670439
4670493
4670496
4670520
4670526
4670533
4670546
4670556
4670607
4670623
4670626
4670630
4670631
4670632
4670639
4670661
4670672
4670679
4670689
4670702
4670706
4670721
4670726
4670735
4670802
4670812
4670832
4670843
4670850
4670864
4670880
4670889
4670896
4670913
4670916
4670917
4670948
4670949
4670974
4670977
4670989
4670991
4671031
4671035
4671042
4671045
4671046
4671057
4671061
4671074
4671085
4671092
4671117
4671127
4671143
4671155
4671163
4671194
4671233
4671249
4671261
4671265
4671314
4671316
4671317
4671323
4671337
4671345
4671358
4671399
4671423
4671424
4671431
4671441
4671469
4671478
4671479
4671483
4671491
4671518
4671523
4671551
4671552
4671568
4671572
4671630
4671633
4671645
4671650
4671653
4671659
4671672
4671676
4671686
4671719
4671724
4671765
4671781
4671783
4671801
4671810
4671830
4671910
4671932
4671937
4671947
4671949
4671955
4671980
4671995
4672017
4672018
4672020
4672022
4672028
4672033
4672044
4672055
4672074
4672079
4672082
4672115
4672134
4672140
4672160
4672193
4672207
4672209
4672237
4672242
4672247
4672252
4672254
4672263
4672276
4672282
4672363
4672419
4672430
4672438
4672462
4672468
4672476
4672533
4672539
4672555
4672582
4672623
4672656
4672658
4672675
4672683
4672690
4672720
4672746
4672752
4672759
4672761
4672796
4672815
4672829
4672851
4672863
4672877
4672897
4672919
4672931
4672941
4672949
4672960
4672991
4672999
4673037
4673038
4673056
4673072
4673079
4673124
4673138
4673142
4673143
4673146
4673147
4673159
4673164
4673191
4673217
4673219
4673259
4673294
4673339
4673349
4673366
4673389
4673399
4673448
4673486
4673491
4673494
4673510
4673511
4673532
4673568
4673590
4673601
4673622
4673631
4673646
4673654
4673656
4673665
4673674
4673693
4673746
4673758
4673790
4673802
4673834
4673852
4673853
4673861
4673862
4673896
4673915
4673921
4673947
4673954
4673959
4673970
4673971
4673977
4673979
4673991
4673996
4674004
4674009
4674014
4674052
4674066
4674069
4674098
4674122
4674125
4674130
4674140
4674156
4674165
4674175
4674194
4674199
4674203
4674220
4674227
4674233
4674237
4674241
4674252
4674254
4674271
4674274
4674297
4674302
4674307
4674335
4674342
4674350
4674351
4674405
4674406
4674432
4674436
4674437
4674446
4674452
4674481
4674494
4674513
4674539
4674546
4674566
4674602
4674608
4674655
4674690
4674692
4674695
4674718
4674726
4674745
4674751
4674755
4674768
4674789
4674798
4674806
4674811
4674820
4674827
4674829
4674831
4674842
4674844
4674867
4674881
4674902
4674906
4674909
4674918
4674921
4674929
4674932
4674934
4674949
4674965
4674967
4674980
4674990
4674991
4675001
4675002
4675035
4675036
4675042
4675050
4675057
4675064
4675079
4675086
4675103
4675113
4675131
4675145
4675165
4675168
4675170
4675176
4675183
4675188
4675223
4675253
4675257
4675275
4675280
4675286
4675293
4675303
4675319
4675322
4675344
4675355
4675361
4675363
4675364
4675374
4675418
4675437
4675446
4675463
4675469
4675510
4675512
4675550
4675614
4675617
4675619
4675629
4675642
4675668
4675669
4675677
4675699
4675715
4675720
4675734
4675747
4675755
4675759
4675764
4675777
4675784
4675786
4675796
4675811
4675812
4675821
4675825
4675833
4675858
4675866
4675868
4675877
4675880
4675890
4675892
4675906
4675921
4675968
4675969
4675973
4676002
4676004
4676007
4676017
4676073
4676077
4676081
4676093
4676096
4676099
4676129
4676172
4676175
4676178
4676197
4676212
4676223
4676225
4676229
4676232
4676233
4676235
4676240
4676257
4676273
4676280
4676285
4676287
4676303
4676307
4676313
4676330
4676334
4676349
4676368
4676370
4676378
4676388
4676395
4676404
4676409
4676429
4676436
4676457
4676469
4676474
4676489
4676496
4676504
4676517
4676522
4676541
4676552
4676555
4676564
4676571
4676577
4676595
4676610
4676619
4676624
4676634
4676636
4676639
4676643
4676647
4676653
4676678
4676686
4676736
4676756
4676769
4676784
4676786
4676818
4676822
4676832
4676849
4676861
4676862
4676869
4676875
4676894
4676964
4676966
4676975
4676976
4676994
4676997
4676999
4677013
4677052
4677058
4677061
4677084
4677085
4677108
4677110
4677117
4677159
4677176
4677202
4677203
4677217
4677222
4677233
4677276
4677321
4677329
4677330
4677341
4677370
4677374
4677384
4677397
4677403
4677405
4677450
4677458
4677492
4677501
4677508
4677512
4677514
4677515
4677547
4677559
4677563
4677566
4677572
4677576
4677586
4677588
4677591
4677602
4677616
4677618
4677639
4677640
4677643
4677646
4677653
4677677
4677693
4677707
4677739
4677749
4677762
4677764
4677767
4677771
4677775
4677790
4677791
4677825
4677830
4677863
4677878
4677911
4677930
4677950
4677955
4677970
4677978
4677986
4678000
4678001
4678010
4678012
4678018
4678019
4678023
4678024
4678036
4678038
4678044
4678077
4678088
4678094
4678097
4678103
4678120
4678122
4678133
4678138
4678142
4678155
4678159
4678175
4678178
4678206
4678210
4678244
4678249
4678259
4678272
4678304
4678307
4678312
4678334
4678340
4678342
4678350
4678364
4678375
4678387
4678389
4678395
4678402
4678418
4678449
4678450
4678474
4678498
4678500
4678518
4678523
4678530
4678531
4678548
4678562
4678571
4678589
4678592
4678600
4678606
4678613
4678626
4678638
4678650
4678669
4678674
4678685
4678687
4678688
4678693
4678714
4678715
4678726
4678729
4678731
4678751
4678760
4678767
4678774
4678781
4678788
4678811
4678813
4678835
4678844
4678859
4678860
4678863
4678864
4678877
4678895
4678905
4678916
4678922
4678924
4678930
4678939
4678959
4678960
4678972
4678987
4678993
4679012
4679025
4679027
4679028
4679029
4679034
4679044
4679070
4679071
4679072
4679091
4679106
4679112
4679126
4679144
4679155
4679160
4679164
4679165
4679187
4679190
4679196
4679202
4679207
4679213
4679239
4679243
4679281
4679296
4679297
4679298
4679321
4679324
4679338
4679351
4679360
4679363
4679384
4679392
4679396
4679397
4679429
4679432
4679436
4679441
4679451
4679460
4679461
4679491
4679502
4679523
4679533
4679547
4679593
4679601
4679633
4679645
4679653
4679656
4679677
4679699
4679708
4679713
4679716
4679721
4679725
4679745
4679751
4679771
4679782
4679813
4679819
4679848
4679850
4679851
4679854
4679855
4679856
4679875
4679884
4679907
4679910
4679916
4679924
4679927
4679928
4679952
4679962
4680011
4680034
4680061
4680093
4680114
4680148
4680159
4680165
4680177
4680182
4680186
4680193
4680195
4680197
4680264
4680269
4680279
4680292
4680295
4680303
4680304
4680325
4680327
4680332
4680335
4680340
4680361
4680412
4680434
4680438
4680439
4680482
4680493
4680496
4680498
4680512
4680533
4680543
4680544
4680551
4680556
4680565
4680572
4680573
4680574
4680586
4680589
4680604
4680609
4680610
4680618
4680661
4680666
4680692
4680700
4680701
4680734
4680736
4680741
4680745
4680762
4680793
4680804
4680808
4680814
4680836
4680855
4680869
4680870
4680871
4680891
4680913
4680923
4680930
4680940
4680943
4680947
4680969
4681001
4681035
4681056
4681057
4681061
4681068
4681085
4681091
4681100
4681112
4681133
4681158
4681171
4681172
4681184
4681189
4681192
4681195
4681221
4681224
4681227
4681238
4681250
4681252
4681257
4681266
4681267
4681290
4681294
4681306
4681310
4681315
4681361
4681365
4681370
4681376
4681377
4681378
4681398
4681400
4681424
4681436
4681441
4681460
4681471
4681483
4681530
4681546
4681557
4681558
4681562
4681579
4681601
4681605
4681613
4681620
4681629
4681632
4681643
4681655
4681666
4681668
4681690
4681706
4681719
4681730
4681749
4681780
4681781
4681804
4681811
4681819
4681823
4681835
4681837
4681846
4681866
4681877
4681886
4681905
4681927
4681932
4681938
4681949
4681957
4681974
4681977
4681984
4681987
4681990
4682013
4682020
4682022
4682036
4682063
4682071
4682082
4682083
4682087
4682128
4682132
4682133
4682137
4682147
4682171
4682175
4682179
4682187
4682205
4682230
4682231
4682243
4682261
4682265
4682271
4682275
4682277
4682284
4682303
4682318
4682323
4682330
4682331
4682341
4682350
4682351
4682369
4682400
4682402
4682424
4682442
4682456
4682465
4682474
4682475
4682484
4682485
4682494
4682495
4682499
4682512
4682520
4682527
4682536
4682538
4682545
4682552
4682596
4682612
4682630
4682635
4682636
4682647
4682654
4682655
4682677
4682684
4682688
4682701
4682705
4682709
4682718
4682721
4682727
4682751
4682774
4682781
4682798
4682799
4682809
4682815
4682817
4682844
4682849
4682866
4682868
4682871
4682875
4682880
4682882
4682899
4682903
4682904
4682914
4682915
4682920
4682922
4682923
4682930
4682931
4682935
4682941
4682964
4682976
4683002
4683006
4683013
4683028
4683053
4683055
4683057
4683060
4683061
4683088
4683089
4683095
4683096
4683105
4683111
4683114
4683117
4683150
4683154
4683169
4683189
4683196
4683209
4683213
4683227
4683234
4683238
4683241
4683259
4683264
4683265
4683268
4683278
4683283
4683286
4683287
4683295
4683309
4683334
4683338
4683353
4683363
4683366
4683397
4683403
4683411
4683422
4683430
4683434
4683453
4683457
4683461
4683467
4683470
4683473
4683477
4683508
4683512
4683579
4683606
4683610
4683611
4683630
4683635
4683642
4683643
4683647
4683658
4683695
4683700
4683701
4683710
4683722
4683723
4683735
4683744
4683748
4683773
4683775
4683791
4683798
4683804
4683810
4683815
4683819
4683835
4683858
4683893
4683904
4683919
4683925
4683942
4683943
4683950
4683965
4683972
4683977
4684002
4684003
4684005
4684022
4684033
4684038
4684056
4684059
4684070
4684083
4684088
4684094
4684095
4684099
4684113
4684115
4684117
4684127
4684136
4684165
4684190
4684192
4684194
4684222
4684224
4684226
4684242
4684257
4684273
4684277
4684296
4684304
4684309
4684323
4684332
4684336
4684338
4684342
4684343
4684362
4684365
4684370
4684373
4684378
4684397
4684401
4684433
4684438
4684450
4684463
4684466
4684468
4684475
4684480
4684488
4684511
4684513
4684515
4684533
4684540
4684568
4684570
4684583
4684596
4684606
4684613
4684621
4684628
4684638
4684670
4684675
4684680
4684687
4684695
4684704
4684712
4684730
4684748
4684754
4684772
4684783
4684787
4684792
4684803
4684818
4684823
4684825
4684835
4684850
4684861
4684862
4684870
4684884
4684888
4684899
4684919
4684923
4684925
4684934
4684936
4684941
4684947
4684965
4684976
4684979
4684986
4684990
4684995
4685004
4685005
4685006
4685012
4685036
4685051
4685060
4685061
4685140
4685151
4685175
4685212
4685224
4685226
4685231
4685236
4685237
4685243
4685279
4685303
4685311
4685321
4685338
4685342
4685348
4685351
4685360
4685364
4685367
4685371
4685375
4685383
4685384
4685392
4685404
4685418
4685423
4685452
4685454
4685467
4685468
4685486
4685489
4685525
4685542
4685555
4685560
4685561
4685566
4685604
4685608
4685612
4685632
4685666
4685668
4685686
4685688
4685691
4685698
4685712
4685730
4685742
4685770
4685774
4685778
4685790
4685792
4685801
4685826
4685857
4685869
4685885
4685890
4685896
4685907
4685923
4685932
4685933
4685936
4685944
4685960
4685963
4685981
4685986
4685987
4685988
4685989
4685997
4686001
4686007
4686011
4686013
4686015
4686017
4686027
4686044
4686052
4686059
4686063
4686114
4686123
4686131
4686157
4686159
4686165
4686183
4686185
4686211
4686217
4686236
4686242
4686243
4686255
4686261
4686272
4686275
4686280
4686292
4686314
4686343
4686354
4686361
4686381
4686384
4686388
4686413
4686423
4686434
4686443
4686445
4686450
4686451
4686461
4686463
4686466
4686476
4686501
4686509
4686518
4686532
4686550
4686556
4686558
4686559
4686576
4686579
4686640
4686646
4686650
4686652
4686655
4686660
4686671
4686698
4686724
4686729
4686730
4686731
4686737
4686745
4686746
4686752
4686753
4686768
4686772
4686788
4686804
4686813
4686819
4686824
4686831
4686843
4686851
4686853
4686857
4686864
4686875
4686884
4686888
4686889
4686892
4686895
4686899
4686903
4686920
4686924
4686931
4686942
4686961
4686972
4686973
4686974
4686978
4686986
4686987
4686988
4686989
4686993
4686997
4687002
4687007
4687024
4687026
4687027
4687038
4687043
4687051
4687052
4687068
4687071
4687079
4687082
4687097
4687098
4687101
4687112
4687119
4687121
4687130
4687135
4687137
4687139
4687144
4687153
4687188
4687193
4687202
4687243
4687248
4687254
4687255
4687261
4687263
4687267
4687280
4687285
4687288
4687290
4687312
4687318
4687328
4687333
4687352
4687374
4687384
4687407
4687422
4687426
4687431
4687432
4687459
4687497
4687500
4687508
4687510
4687514
4687521
4687531
4687532
4687538
4687544
4687551
4687560
4687564
4687568
4687575
4687580
4687597
4687600
4687607
4687617
4687628
4687638
4687646
4687651
4687669
4687671
4687676
4687682
4687689
4687707
4687716
4687734
4687749
4687757
4687758
4687764
4687765
4687766
4687785
4687797
4687804
4687809
4687810
4687827
4687832
4687842
4687847
4687848
4687852
4687864
4687876
4687878
4687879
4687880
4687896
4687903
4687904
4687908
4687928
4687938
4687941
4687949
4687957
4687987
4688003
4688017
4688020
4688038
4688053
4688064
4688073
4688074
4688089
4688097
4688098
4688112
4688114
4688115
4688134
4688136
4688145
4688154
4688159
4688172
4688174
4688176
4688177
4688182
4688197
4688199
4688201
4688203
4688208
4688217
4688240
4688241
4688248
4688255
4688268
4688269
4688271
4688282
4688299
4688302
4688309
4688320
4688328
4688329
4688335
4688343
4688344
4688347
4688351
4688375
4688420
4688422
4688433
4688450
4688454
4688455
4688459
4688476
4688505
4688520
4688528
4688534
4688548
4688549
4688554
4688559
4688564
4688574
4688578
4688595
4688597
4688612
4688626
4688629
4688647
4688650
4688651
4688655
4688656
4688672
4688682
4688683
4688684
4688692
4688702
4688703
4688705
4688706
4688707
4688708
4688710
4688718
4688722
4688735
4688747
4688755
4688766
4688767
4688781
4688784
4688793
4688805
4688808
4688812
4688818
4688834
4688838
4688842
4688850
4688861
4688864
4688867
4688870
4688887
4688895
4688896
4688906
4688911
4688915
4688917
4688921
4688922
4688925
4688931
4688943
4688945
4688954
4688958
4688962
4688973
4689001
4689007
4689010
4689023
4689027
4689031
4689035
4689059
4689068
4689089
4689094
4689095
4689099
4689102
4689103
4689128
4689131
4689151
4689154
4689155
4689165
4689169
4689189
4689191
4689195
4689203
4689208
4689217
4689220
4689224
4689234
4689240
4689247
4689250
4689253
4689268
4689328
4689336
4689338
4689353
4689354
4689356
4689358
4689359
4689367
4689369
4689388
4689389
4689390
4689412
4689414
4689429
4689431
4689445
4689449
4689455
4689465
4689467
4689471
4689472
4689494
4689498
4689500
4689513
4689515
4689525
4689526
4689527
4689534
4689535
4689555
4689559
4689560
4689573
4689575
4689608
4689615
4689622
4689631
4689635
4689641
4689643
4689653
4689655
4689672
4689673
4689686
4689689
4689697
4689711
4689720
4689722
4689724
4689729
4689740
4689751
4689754
4689760
4689790
4689811
4689817
4689837
4689840
4689841
4689854
4689865
4689878
4689888
4689898
4689911
4689916
4689921
4689926
4689934
4689942
4689946
4689947
4689959
4689962
4689964
4689971
4689975
4689982
4689989
4690002
4690008
4690014
4690015
4690043
4690058
4690080
4690094
4690095
4690097
4690100
4690102
4690105
4690115
4690123
4690126
4690127
4690130
4690154
4690158
4690160
4690168
4690185
4690216
4690223
4690228
4690241
4690255
4690271
4690279
4690289
4690290
4690296
4690297
4690300
4690303
4690311
4690321
4690322
4690326
4690339
4690364
4690366
4690382
4690398
4690411
4690418
4690427
4690432
4690448
4690453
4690459
4690463
4690464
4690469
4690470
4690471
4690487
4690489
4690509
4690510
4690511
4690516
4690526
4690562
4690575
4690583
4690587
4690588
4690597
4690603
4690607
4690608
4690624
4690632
4690636
4690638
4690642
4690643
4690651
4690656
4690659
4690660
4690673
4690676
4690680