/*--------------------------------*- C++ -*----------------------------------*\
| =========                 |                                                 |
| \\      /  F ield         | OpenFOAM: The Open Source CFD Toolbox           |
|  \\    /   O peration     | Version:  v1706                                 |
|   \\  /    A nd           | Web:      www.OpenFOAM.com                      |
|    \\/     M anipulation  |                                                 |
\*---------------------------------------------------------------------------*/
FoamFile
{
    version     2.0;
    format      ascii;
    class       Cloud<dsmcParcel>;
    location    "3.989/lagrangian/dsmc";
    object      positions;
}
// * * * * * * * * * * * * * * * * * * * * * * * * * * * * * * * * * * * * * //

68512
(
(2.209868981 8.229655098 0.009438625866) 2887
(-8.036806712 2.579308474 25.50520486) 44782
(12.66644242 7.669739078 26.160705) 46741
(4.403068268 -2.38127899 0.3583373795) 2471
(-9.235108175 7.872494086 10.55181403) 18911
(0.2695112703 12.9881136 14.29482336) 26155
(9.864441292 -6.249633193 0.214354381) 2324
(5.517451277 10.74160826 20.73667261) 36468
(6.610817787 18.3178991 18.96269139) 33341
(6.73041742 -1.401126512 7.922424702) 13683
(-7.866562722 -9.594485539 17.36727726) 30451
(0.9416266337 4.776916696 11.05805845) 20559
(4.240566829 11.60894057 9.760774053) 17361
(12.26383595 5.126631477 16.57569174) 29337
(-17.86253479 -18.52003195 20.92800794) 35259
(12.2257236 1.627314704 6.194733785) 12207
(-6.960902058 -10.67922028 1.573378078) 3755
(-5.258424357 3.033361414 12.77047101) 22275
(0.05919917887 -5.57181478 20.70097929) 35823
(-3.816889038 0.442082967 26.43333289) 46447
(-5.078781473 4.857508011 20.0853971) 36205
(-8.514439723 -15.36963649 23.73229361) 40590
(9.286116632 2.829570783 7.450852844) 13838
(5.361315526 8.686631447 0.2174459096) 2890
(7.240537842 6.370915621 9.302139055) 17180
(9.328577848 13.55405988 28.81572901) 50486
(4.917040384 17.06121711 22.97246299) 40225
(4.659391204 -8.315501052 17.82118311) 30505
(-6.210434055 -10.70423809 0.5492013546) 2159
(9.759235621 13.54888798 23.12851965) 41794
(-10.88053407 -15.89501418 14.09202643) 25000
(-9.639682199 -5.698632056 6.115791012) 11919
(2.877613332 -6.969983099 25.05721967) 44443
(7.786605854 12.36564106 17.08843364) 31358
(-16.46506927 6.258144129 23.89825394) 41474
(-10.98181554 -1.695462459 4.431299104) 8878
(-9.612669872 -3.876944243 8.244703914) 15187
(-10.14474747 -4.150684156 0.3397475913) 2380
(8.588223898 -5.852745924 2.212627337) 5553
(-0.7491539202 -14.12733184 24.83228778) 42372
(-2.944266638 -11.73731725 3.912598205) 6916
(-5.906357701 -8.395067011 1.605134533) 3829
(4.475783425 9.374682798 2.204221614) 6118
(6.486030749 -0.7672935579 7.997147573) 13721
(-2.465555553 -0.8910305304 9.455175699) 16904
(-6.708342273 2.15752572 7.898653512) 13822
(15.85337806 -10.29364554 19.9542355) 33896
(-9.477302958 -3.236878832 12.6798155) 21977
(5.500956905 7.829527992 4.544019716) 9236
(1.452959174 -3.807231731 15.20346067) 27248
(19.85594954 20.37874847 19.4195569) 35170
(0.8053466597 -11.36291111 10.84686521) 18123
(12.91406188 9.554611125 23.79065322) 41629
(2.773120273 -8.587697433 6.53636232) 11817
(11.73570771 -4.709149181 4.264809425) 8786
(4.496998253 4.393545567 11.57537844) 20563
(3.565477624 -1.096656946 15.81198084) 27324
(-13.47372809 11.27707753 19.39485017) 34759
(-3.321491688 9.228235748 8.863198675) 15686
(-6.941682781 0.2961847969 6.772492162) 12150
(-15.23059868 -11.47418125 20.34845793) 35555
(-8.515677552 3.902616426 14.59473629) 25768
(8.665063928 4.792934523 0.2172036927) 2741
(5.622604792 6.305840343 13.85562675) 24176
(10.49305294 14.10724978 18.52401574) 33177
(7.44011787 -15.3914325 26.01508602) 45802
(-0.9878763527 11.31729223 6.800603431) 12568
(12.93325559 17.7988335 23.14413436) 41965
(10.83885813 1.653950652 12.29037522) 22207
(-10.16086735 -4.672055242 3.360344899) 7168
(-2.541764917 -19.59339413 22.28246132) 38696
(19.59526484 2.044186078 27.33895034) 48270
(-1.036679891 10.01067335 6.509879995) 12532
(4.664360654 11.02631055 5.593513623) 10977
(11.24539705 -8.228591466 18.87191216) 32244
(18.79628927 8.907216787 23.45548035) 41593
(-7.987426708 5.28265473 27.16348567) 48369
(9.429226021 -2.269927752 0.8872262122) 2476
(-11.7883715 6.106239419 20.41621003) 36283
(4.71330867 -2.923490935 20.45516574) 35949
(-9.256462571 -2.543924387 7.844589554) 13629
(-10.27469639 5.853776446 10.25199241) 18826
(-0.7960424448 -3.868557244 0.4449246417) 2428
(-8.781247393 6.816254838 10.88400602) 18870
(-11.59029545 -2.604696349 6.302350178) 12031
(-6.717862465 13.93968275 16.5717464) 29654
(10.58200982 -5.585928797 5.691073351) 10343
(-11.83266895 5.956145449 3.095004475) 7547
(1.369206454 7.825963187 19.49223108) 34606
(12.14504554 -3.934679416 1.713927096) 4037
(9.201765914 12.5150653 16.71539742) 29628
(-14.4150941 -4.047295826 13.54449128) 23694
(-6.94555023 4.116137595 24.74672057) 43132
(3.483470608 11.16607651 8.100537997) 15764
(-4.627428044 10.96602071 20.49669043) 36458
(-12.85989409 7.488890114 19.42731637) 34592
(-8.38382709 9.755624039 2.744907507) 6105
(-2.333280785 -2.861255661 0.2593299907) 2464
(-11.44627147 -4.480406533 0.2785284029) 2379
(-5.1470352 7.292187865 12.87925173) 22443
(6.485292778 1.11179256 4.991166507) 9009
(5.897141169 -10.43322274 10.60151687) 18170
(-3.666726869 -11.63702443 11.09666333) 19883
(-15.35670527 -10.55311255 22.82100977) 39061
(-0.5012423784 2.766660857 13.20289239) 24002
(-9.021751139 -5.254489163 4.005858328) 8727
(-3.672651341 -5.688869608 26.5208977) 46211
(1.034407128 -12.56252117 11.03595622) 19846
(-18.95772463 10.45940531 15.40853992) 27784
(-10.23932789 -5.468701751 4.667227865) 8726
(-17.98678113 18.15262016 13.16841217) 24657
(9.040519036 8.388691825 19.61102723) 34656
(7.056382894 9.34838706 21.85679098) 38160
(-17.0785318 -9.40760914 15.65951414) 26977
(16.64362905 -1.033780082 27.93129378) 48121
(7.608343796 -4.981008147 8.748527676) 15166
(-13.7390335 -17.51376706 14.56275301) 24913
(4.161183889 -3.803436417 27.95067418) 48035
(-2.986224685 -14.41462157 23.53834269) 40638
(-17.47480815 6.269063083 27.62949592) 48401
(4.007508785 -7.315057977 2.606528313) 5473
(-10.54441542 9.211601934 22.15358447) 39874
(12.54650896 4.926568963 16.68333993) 29295
(-16.47841123 -4.744373923 17.531737) 30652
(3.188695945 -11.94359645 2.106166954) 5326
(9.00265956 5.308591061 6.905989527) 12356
(-2.473578639 2.163305548 13.85241235) 24000
(-4.279213476 0.9013777051 3.584916764) 7364
(1.67224206 -8.718975324 26.94323147) 46090
(-6.838991575 10.75104979 2.736254976) 6143
(-1.502085736 2.9465159 13.17832617) 24001
(9.003816688 1.492840414 17.32063826) 30902
(-9.216136905 -7.842331835 12.33890161) 21809
(2.164239746 -18.36817627 24.25282241) 42207
(6.931813965 -6.068278297 3.880313895) 7109
(-3.850581042 12.98710054 0.8985067187) 3023
(2.738670387 -7.839277356 15.64336654) 27081
(-9.115763615 -7.266998748 22.88019881) 39193
(8.107124041 -2.075321544 7.729710878) 13647
(-10.15776373 7.219014629 7.021635999) 14008
(-9.926701061 -7.755284041 7.342424334) 13439
(1.104218364 6.233432835 25.25868636) 44956
(-12.0971853 -0.6309205 20.63706579) 36010
(6.464855402 -8.638520143 5.46747189) 10225
(-2.552514325 5.951653651 11.00862298) 20598
(11.92321037 -5.67394218 1.49025597) 3960
(3.616970112 10.61821682 1.191177643) 4557
(-6.211925986 6.014588868 21.64155068) 38020
(9.941152149 18.21779279 23.34020913) 42004
(-20.76588813 -7.856288291 24.13700947) 42646
(-4.730906945 6.122286323 6.420203258) 12380
(-8.518030457 -5.919502951 16.55704132) 28886
(13.31978166 2.779583109 19.63353361) 34408
(-4.253960892 -19.86783082 27.91039395) 47354
(-3.70468301 -12.71409561 5.301062167) 10073
(2.855998348 19.79019273 19.18664281) 35111
(-2.544929183 6.095040958 6.410517196) 12382
(5.295681105 2.694654016 16.97122761) 29204
(6.392183331 -4.766964083 3.436975167) 7185
(6.484886439 3.842894948 3.967362868) 7489
(1.403371278 -1.900638888 0.1190416647) 2506
(-1.568551142 6.367929135 8.657357234) 15575
(-14.0517756 -9.853449341 26.98250619) 46032
(-9.256083535 -2.123814763 26.9514906) 46331
(-4.290909515 -11.23538983 18.91187662) 32102
(9.892475619 8.280352592 4.008943969) 9278
(12.47963933 0.9195571549 0.03230700682) 2593
(5.962898408 -9.731978342 3.656321384) 6995
(6.943361562 -6.014768912 25.81817933) 44447
(8.014124622 4.642726216 10.69823545) 18803
(2.307349116 11.97134669 0.8476727539) 2995
(-8.057494315 7.889984729 2.945794043) 6030
(-14.7369816 12.92308825 16.52580475) 29604
(-4.549570627 -0.3917496404 17.76365033) 30822
(-6.663133164 -5.163765132 23.7020828) 41012
(10.27965855 2.817547044 2.053206328) 5859
(-12.17143261 -3.646264875 2.427698874) 5608
(4.931255605 -11.02808698 13.43270288) 23419
(-11.94265468 -4.144627775 15.88739477) 27193
(8.32152676 -7.141004712 0.6290530578) 2285
(12.57189068 1.433454849 7.942378801) 13803
(3.45087733 -1.945325614 4.824520435) 8892
(4.616236963 0.3561711534 13.63282152) 23923
(7.380922492 -1.803669455 3.589282786) 7300
(8.137366092 -12.75702227 17.82714027) 30341
(-4.242424871 -1.946792985 2.551552018) 5692
(5.111671673 10.85099921 20.72179043) 36468
(5.964179083 -10.96781846 7.623863882) 13343
(-8.39015229 8.89227277 24.38130237) 43298
(0.3306654102 -9.05711295 4.782304738) 8586
(2.7398101 -11.50059747 5.151952725) 10113
(-8.972819148 -5.563121989 4.392898009) 8728
(-17.59715153 -0.7528918654 22.06035841) 39469
(0.485097957 10.90891688 24.78227281) 43391
(-8.072371989 -8.736249412 6.501597261) 11806
(13.84120704 -3.168218515 23.72508228) 41116
(3.654156285 7.476498088 13.28449864) 24216
(-8.556381024 -3.908120969 27.62196811) 48022
(-11.41628071 -1.254952599 5.540138972) 10473
(-11.93821893 5.800895406 12.02158902) 22353
(1.924618578 -10.00668301 19.80867143) 33882
(-5.654222639 17.33865671 18.30991831) 33287
(-10.47051327 11.28788834 16.25061979) 29566
(-11.78538147 5.22680911 1.745135508) 4355
(-8.257306475 -7.322322098 3.751558635) 7056
(8.592320981 -10.58272264 21.83089382) 37353
(-11.85927798 1.275893877 1.488094962) 4203
(-14.02010271 -15.25484035 25.28390956) 44048
(13.82608126 6.448892873 19.52039256) 34576
(-11.80967674 -15.27479061 25.90256774) 44051
(11.68312491 -1.360032001 2.043018306) 5708
(7.886745963 11.41646498 24.94545311) 43440
(-12.9322716 -3.135728252 25.98411195) 44554
(9.708049808 -3.192360572 16.22725173) 28988
(-5.163924973 -13.5237461 27.89244819) 47605
(15.1154914 12.19128766 23.94120608) 41758
(0.7743864177 5.361547121 13.9675998) 24129
(1.469890948 2.685112327 9.169282843) 17022
(-4.859769802 -11.43060906 0.7663285206) 2126
(-12.78753703 15.06048163 23.73727734) 41856
(-8.348056273 4.579914736 0.6489355912) 2724
(-18.5843765 -15.71326038 25.43177063) 44044
(7.974873975 8.719616249 8.349912488) 15660
(-0.738272648 10.60415151 3.357874925) 7745
(8.752711888 7.90675605 9.819924613) 17219
(-9.711607532 8.780729348 8.773582827) 15643
(-11.12738292 4.588340073 13.30756077) 24075
(-4.570859358 -11.15066564 12.61369881) 21646
(5.40502655 -5.116516635 5.6415846) 10338
(9.407814903 3.796401299 0.6549650858) 2704
(7.670600613 -10.84545554 4.631301961) 8557
(15.62789169 5.330076814 28.55939763) 50156
(-6.497491838 9.911986664 9.987387321) 17279
(17.17998306 -3.778900559 25.73553481) 44584
(2.555980673 -3.058544715 9.949702892) 16795
(-3.01239531 9.550724279 2.017384358) 6110
(-4.675752939 -10.83426029 2.76412425) 5353
(-13.82029963 15.6324721 16.39425185) 29731
(-3.676824103 12.12693897 23.99242254) 41739
(-2.08726054 -8.545788034 1.606369056) 3832
(5.168262604 9.162590479 26.40968778) 46818
(1.663430462 12.63410736 12.49778377) 22660
(-3.936040429 -9.379799688 12.28873783) 21731
(11.3174505 0.1828856297 7.319901452) 13764
(-6.38624602 -4.550956867 26.50459241) 46250
(2.70460006 -12.47111677 2.288489126) 5291
(7.30684301 5.724982096 9.972473876) 17142
(-15.11346127 3.566060031 19.67956404) 34421
(-7.26624373 6.836043992 12.56810753) 22399
(-11.64472227 4.469727182 1.145903897) 4317
(5.520539107 8.459244022 21.98130466) 38116
(12.03561456 3.863514351 7.253833109) 13879
(-12.85682347 2.482380136 12.41858642) 22226
(2.468360589 2.518858718 18.76230994) 32665
(-12.43909626 -1.804015513 16.92500396) 29046
(-16.30085574 -17.6624396 18.44645299) 31838
(4.071019692 -8.213526786 8.234009653) 15011
(1.176462666 -12.58214778 5.025581565) 10078
(4.508288534 8.348643364 16.10725524) 29455
(-11.9748162 7.630041151 26.7180516) 46717
(-2.770780383 -7.746606607 22.64181716) 39200
(7.60157681 -7.316078539 8.342443708) 15052
(11.35074104 -1.208527392 8.520983704) 15284
(-6.91737155 4.346368638 13.10454384) 24080
(-2.608384014 -12.32687358 14.13729033) 25134
(-7.336259076 -20.08592181 16.13918731) 28257
(-9.70482709 6.159976265 1.390077792) 4395
(7.064354778 10.22575836 3.500682533) 7753
(17.79087453 -5.034368678 26.22954899) 46232
(5.847448046 -0.2291548881 10.68462186) 18590
(-10.70791582 1.945576687 12.84585693) 22186
(-1.806608698 -9.127971219 26.64781121) 46045
(-0.6695968899 -8.525272571 15.11482679) 27036
(20.11705674 10.69516148 22.40371213) 39947
(20.38638394 1.673293214 16.52190852) 29181
(1.906143529 -7.22979414 7.916063646) 13450
(-7.307264981 5.17646732 18.35353183) 32781
(-7.658400336 8.811886787 25.10769712) 45031
(0.6148050542 8.26105776 20.68547783) 36379
(8.247619721 8.242199337 14.49164495) 25995
(-3.824805955 6.147657502 9.15180646) 17169
(-3.280097879 5.649879667 27.8145446) 48373
(-5.924397219 -7.323315647 15.86086285) 27073
(-2.182598035 6.220923121 15.11567247) 27632
(9.670234077 6.72297726 1.549116225) 4414
(3.451993659 -7.200090385 13.48573845) 23586
(-12.31264428 -3.181115591 2.714792011) 5608
(-3.295630071 -11.36328115 8.035547022) 14895
(-11.37041946 -2.996548414 1.194919561) 4051
(13.0424915 -4.163229651 10.05651469) 18430
(11.57307139 7.338772189 24.60319452) 43276
(-11.10200787 -10.97009585 15.39237715) 26941
(12.08717908 -4.79506977 15.45483721) 27217
(-3.038982627 -4.798620175 13.85760529) 23705
(-2.52593386 -9.235925135 11.61616792) 19968
(10.74893698 6.19867709 1.382136835) 4415
(3.266163769 11.03715299 5.967394609) 10976
(3.599960064 -5.786243922 11.44542975) 20142
(-11.0272685 3.797445643 3.208558314) 7471
(-12.85461615 3.286132956 22.67781864) 39620
(-11.09236481 -5.054776791 0.1794593523) 2341
(1.283966297 8.803901168 16.14560845) 29452
(9.928629362 7.899333375 14.35864955) 25954
(-11.87414024 -16.33274284 27.84810311) 47473
(-10.41198609 0.4463436286 18.69263576) 32584
(-4.5329162 6.704620919 22.4497848) 39754
(-12.67023456 4.830732735 27.88948292) 48322
(-20.70646837 -13.27246498 21.47523887) 37198
(2.196154521 -8.386712727 15.47637994) 27039
(5.439305687 -10.4668396 0.8846691057) 2171
(12.66116961 -3.030076178 2.274961494) 5633
(-9.873043103 15.65042926 12.57599396) 22775
(-3.937129595 -3.688768092 10.73209359) 18455
(-15.15453394 -9.332945698 15.60962532) 26979
(-18.37492316 11.1128041 26.34897863) 46878
(-7.478356446 -14.31685657 27.39333469) 47561
(2.822488231 -12.83959003 0.6365466435) 2099
(-7.246215075 -19.27749904 14.79052126) 24835
(6.160115481 6.448912102 11.93854249) 20649
(-9.289137588 -8.719828527 7.778235616) 13401
(10.26132476 -5.756498993 1.901266614) 3959
(1.242842158 -8.837833883 28.40469843) 49554
(-14.05986998 18.81888901 26.12028671) 47176
(9.596039481 7.026792623 7.079820754) 14028
(3.869821217 -1.683222844 12.02664746) 22074
(6.898220142 -10.85816533 8.114491061) 14940
(11.35223931 -7.5306162 24.42129601) 42678
(-3.652733219 -11.61321617 0.9138485393) 2127
(5.173510956 12.76131117 15.33939791) 27892
(-9.003071428 5.311199701 16.73469684) 29315
(8.86613975 -10.67918597 12.8717229) 21701
(2.573964617 -7.195884153 22.33165434) 39205
(1.617896578 -4.758052138 28.84206552) 49722
(-10.74638324 -10.01499172 14.50091485) 25210
(17.2533342 2.602897673 28.5948851) 50032
(-5.596677185 11.83425722 7.916476503) 14159
(14.84505559 3.095885204 20.10763818) 36183
(8.594898084 4.11966273 24.53224926) 43147
(2.06549523 20.23970302 23.32448628) 42081
(8.684145458 6.071399467 3.083106707) 7605
(-12.2373384 -6.490880088 10.06987211) 18320
(10.7103011 17.8897648 27.63068818) 48891
(-8.779731425 -5.416173168 15.78741536) 27154
(9.015777537 8.408567592 5.791020611) 10874
(-11.45687945 -2.147685864 2.070790923) 5647
(13.63533963 17.10841421 19.94978184) 35038
(-2.692315741 -14.3197823 26.62438044) 45834
(4.565607474 -20.92326042 24.34936708) 42125
(7.10884959 -4.420898536 21.20498465) 37604
(-16.12128676 -13.30113651 15.64583428) 26810
(-9.952712872 -0.07565414508 8.468557476) 15301
(-2.253899508 12.84443284 6.860295663) 12600
(-10.35979732 6.555137822 0.4817817537) 2798
(-7.250376291 -9.631912625 6.293429398) 11770
(-5.723753899 7.387617201 15.18721052) 27671
(11.79712875 14.76960147 28.01460724) 50530
(11.33711771 2.413382722 28.05026264) 50026
(-12.81947632 -0.2860674306 0.1370864626) 2530
(-13.60128869 -1.985174917 19.36642589) 34241
(20.93916175 1.39788838 27.55384626) 48233
(7.295425891 7.726217349 16.86630462) 29416
(-3.153634909 11.44477147 5.386267574) 10969
(-5.192195331 8.716552259 18.63183233) 32909
(9.522352945 -6.506013711 24.40979839) 42718
(-6.21761676 -4.541280328 13.31771658) 23702
(-0.6089572431 15.61131766 25.15603993) 45332
(10.22615075 2.057636796 25.59081006) 44797
(-4.914921794 5.320287097 17.16983765) 31052
(6.79677517 0.3774162723 13.37171721) 23925
(8.408266998 9.158937942 1.404793837) 4526
(-10.92368046 6.800198575 4.374638766) 9182
(3.012224365 -12.82214223 3.42953332) 6888
(-0.6781537562 -10.15925419 23.67823828) 40808
(8.908350409 8.472921338 7.171270024) 14065
(5.059134916 -11.18461518 8.303438454) 14904
(-8.821970713 19.16622847 25.6225858) 45492
(13.29142562 -15.32828649 27.97368908) 47540
(-5.536978638 -20.95298416 26.37247329) 45579
(-9.173246977 -15.86143064 26.01557302) 45785
(-9.324877494 2.877937502 17.26607706) 30925
(4.275741832 -3.590886622 13.5063313) 23755
(-6.530301604 -1.118406779 6.960688274) 12074
(11.56477825 2.708140971 16.92674624) 29210
(-10.09163169 -7.627144007 4.80281489) 8650
(10.99300452 2.912900418 24.04656824) 43065
(-0.05741987785 12.57884654 9.601845309) 17390
(-2.125423638 9.64673993 13.35447698) 24294
(-0.1135323658 -11.45028574 3.501523173) 6918
(8.322528883 -1.360979414 13.66541919) 23843
(0.6225642639 6.927831972 5.20494216) 10789
(13.57514892 18.24133291 28.75389291) 50700
(10.4524566 3.819622178 10.72610029) 18763
(15.71635404 0.3463156008 22.13519787) 39532
(8.726505081 0.1753052197 5.996156766) 10569
(-15.48618195 13.4766607 15.26451643) 27913
(14.70986399 2.178874441 16.0574888) 29213
(3.320668813 -12.34613612 4.207556756) 8484
(-13.40737024 -3.924472322 25.05408767) 44553
(15.54620569 10.78745178 27.02745778) 48602
(-11.02859257 -4.554117012 11.26017069) 20169
(12.55646633 3.405767298 3.064254778) 7495
(-4.781313075 3.929394137 21.63826415) 37896
(-3.557031856 -1.150096224 14.59478835) 25591
(3.534085273 6.728181765 21.89802864) 38030
(-9.567476234 -4.4027028 3.086488063) 7169
(-5.938795134 -9.028081639 5.018098906) 10176
(-7.302488051 1.663791822 2.72011031) 5803
(-0.05941438108 -11.42958638 1.152706773) 3726
(3.857670437 -6.034047918 4.824730408) 8702
(5.436794173 11.87466756 0.6904201229) 2998
(-0.4788708208 -9.406232934 6.414791619) 11777
(13.07318212 -11.84264577 10.89425554) 18136
(-8.530825003 -4.241218765 19.88878475) 34124
(-6.609944923 -10.50434985 10.59805563) 18158
(-8.502428166 -19.24479861 20.15720164) 35226
(-4.881247381 10.8578863 15.71567835) 27798
(-6.474901059 8.863171941 6.801139723) 12454
(4.671192346 -19.41498501 18.55683079) 31775
(-0.5001531201 9.082894293 7.789583825) 14093
(-4.901245506 -2.685188156 11.44225682) 20260
(9.510156467 -6.378479116 8.580562887) 15092
(-2.11347991 -9.695036004 16.87168758) 28724
(-10.12441128 -6.911982807 0.6529014722) 2304
(5.811341183 9.893831896 5.3240564) 10907
(7.363388619 8.517026112 26.55658387) 46778
(-11.15838732 -2.785151058 6.184217511) 12031
(9.738016412 2.856924804 1.470529086) 4262
(-2.14803419 -7.679572957 3.939346279) 7062
(-8.235700274 -11.34941034 21.42824881) 37294
(-15.19510195 -11.73429006 12.31783331) 21635
(8.713429119 -2.010007567 15.29450417) 27293
(-7.726995438 -11.97362983 27.50218502) 47687
(3.519365342 -4.878533522 2.189947788) 5586
(4.33787674 -11.67275907 1.851496256) 3731
(18.87948403 19.17252762 15.66746073) 28199
(3.303939557 2.178528108 0.5330218858) 2660
(-20.3993584 -14.90851991 24.85157325) 42352
(7.563114837 -1.029592475 14.37357326) 25596
(-5.46548528 -7.533186981 8.71332009) 15039
(-1.916104135 4.173613307 20.44745644) 36209
(11.8753843 4.352647464 4.982356815) 9128
(-4.643871434 -14.3441332 24.5139052) 42368
(-7.364505702 4.910060818 10.01556104) 18787
(-11.62223047 -5.165625584 9.743016674) 16705
(1.79443968 5.457869509 18.65941098) 32790
(6.005581093 1.54171175 18.11339626) 32631
(-2.658220491 -7.303738705 10.46829232) 18288
(14.72560913 -5.356562903 13.55889103) 23681
(5.07098934 -8.731836847 15.85965941) 27042
(-5.707190377 11.31017275 5.971545251) 10967
(1.321257703 9.931824083 9.409068282) 17287
(1.940114269 -9.635870742 5.644853595) 10183
(-2.202140373 -3.990270875 6.208382829) 12002
(-6.030463384 8.2319783 22.32007965) 39836
(16.33707036 15.17380675 15.09218933) 28029
(10.12518014 -1.563881608 20.83527198) 35991
(13.17549762 11.02105679 15.21119892) 27858
(8.367147114 5.542194352 4.809896186) 9163
(7.760651266 -12.83926599 21.17150597) 37268
(10.99674086 8.711865182 28.71028885) 50277
(-4.58461922 6.629403479 17.26436321) 31094
(12.67927557 -1.239564376 14.40563963) 25601
(1.666919468 -7.87872853 6.723524817) 11854
(10.44593668 -8.011230959 12.48274024) 21787
(10.19178148 -3.864512474 7.175430941) 13611
(-9.199350044 6.059703798 11.60386991) 20633
(16.5514039 -0.448109547 15.11894473) 27373
(9.212133457 8.655488305 2.248134685) 6086
(-7.798524355 -3.031221869 7.789325027) 13593
(-5.753649473 -10.11080086 10.18777749) 18159
(-10.23475689 7.117719194 2.441167693) 6028
(-3.970245596 0.2874690643 15.70353708) 27395
(7.278585105 -7.286515645 13.25323773) 23590
(0.7390969988 -12.73901309 17.60152945) 30333
(5.486100497 9.175521764 7.731703388) 14099
(-8.838149066 -3.42870085 15.21240467) 27238
(-4.337325753 -14.07972215 14.02325022) 25048
(4.072467405 -2.183479447 6.179314987) 12047
(-19.96237308 1.34548964 15.6522718) 27415
(-12.45992304 -2.830493366 4.126337856) 8838
(-19.58412609 6.079864242 27.57710923) 48399
(-10.35737568 -7.578976874 25.29213513) 44388
(10.40917508 0.9933863893 15.64669722) 27403
(-6.968914544 -4.004932985 14.81323453) 25466
(7.145949817 -13.56213555 26.49477728) 45886
(-9.623660379 -3.167727009 2.792814725) 5611
(12.87605102 -3.539772231 4.261296709) 8825
(10.26968919 -6.795201455 3.172313013) 7113
(-12.39834487 0.6657075032 25.11107739) 44706
(-10.25661731 0.3760314755 10.957517) 18616
(2.548556036 12.10971665 14.56154359) 26157
(10.69795402 2.567346561 27.54276755) 48261
(-9.286577333 2.166917494 6.400384494) 12223
(14.66838373 2.30332882 20.22984189) 36141
(-8.162150978 9.167415244 6.697274493) 12489
(2.183743089 -5.546751008 25.4747183) 44485
(2.989074387 -12.73845291 5.870988589) 10079
(20.43907537 -4.926823283 28.32544483) 49741
(8.794856902 3.935600821 9.007117113) 17067
(12.47698317 -0.08313895807 8.816022185) 15323
(-4.234239338 6.254674655 28.08130537) 50178
(2.098040477 -8.677392499 10.3288746) 18251
(-11.96555316 -3.436761132 3.229591497) 7205
(-1.939426672 -12.87757563 0.1517053555) 2095
(6.306072081 11.7008282 25.80040352) 45171
(-12.62046969 -14.01592919 26.53740308) 45824
(6.363970676 9.873823563 8.2617897) 15696
(5.346890913 9.392795597 8.315635061) 15695
(-16.98629766 1.388877219 28.31659474) 49956
(-11.16709058 -1.244925033 15.65243979) 27315
(-4.735676952 -10.74122757 4.462612633) 8545
(10.01871811 3.373676267 1.739254859) 4301
(9.349500186 -7.539881819 7.673862966) 13458
(7.454270432 0.818947419 18.88100228) 32596
(-7.182959135 8.754440247 2.023619071) 6069
(17.6497251 12.14129746 14.72303456) 26172
(-9.860661079 3.156368322 4.876504691) 9069
(-16.98545659 0.07465926439 14.91569665) 25650
(-9.512623202 6.319624202 2.062448311) 5991
(-7.416839981 -4.942946407 8.888280307) 15151
(-5.416562254 -10.45432855 23.81839768) 40803
(10.24121311 7.713905653 10.63795463) 18931
(2.723205528 10.74053488 0.2870089171) 2960
(-1.25220044 8.976349333 17.59155187) 31181
(9.158910978 6.837119507 0.1338561027) 2818
(15.96291723 3.151423709 19.44663725) 34452
(5.29207703 -7.19290822 5.166065574) 10262
(-4.570859583 11.21363794 2.444372787) 6180
(-12.1475668 -3.946584252 0.9734683974) 2416
(-5.420524951 6.211377839 17.32866101) 31093
(4.590094308 -11.57631066 1.123796) 3731
(9.384667083 8.392689643 5.034350656) 10874
(6.452493833 -8.824734561 1.907211985) 3841
(11.99969601 -3.443642723 4.405451683) 8824
(3.037985543 5.15544862 12.51154989) 22368
(-10.89712934 5.855992556 3.192075375) 7548
(4.549485799 9.147356228 12.3818241) 22537
(3.440680453 10.62817968 4.343330789) 9345
(-2.274133587 17.82442401 13.50240668) 24630
(11.53775033 7.609007279 14.15353575) 25956
(-16.19067222 -5.854208474 25.57643596) 44466
(-10.21027169 -5.055116676 25.26286235) 44472
(-7.715992462 -10.24580958 7.999012683) 13330
(0.3273292038 -10.46596312 8.863866219) 14934
(9.768570816 -6.579409446 20.26403286) 35790
(6.851766673 -9.298427468 1.097565415) 3804
(-8.08606362 8.383178689 14.79295502) 25978
(-19.48111011 10.19753057 16.99605965) 29515
(-11.59670715 -1.696157277 2.566321799) 5685
(10.26881898 4.654427621 4.825732027) 9127
(15.61322314 11.43165287 19.90337071) 34788
(-10.2992768 1.117627517 22.39908512) 39548
(8.868968331 -8.788745143 6.358326173) 11823
(-7.290334017 -9.222946632 2.437432445) 5386
(3.234422022 -9.563582631 19.14428463) 33926
(-2.230633566 11.64313864 10.98947163) 19086
(6.002605963 6.990435335 11.84810048) 20649
(-10.75404804 0.3528228241 17.17314715) 30852
(12.17213864 4.751366955 17.6736693) 31027
(1.984974221 16.30155664 12.25004997) 22828
(9.788718035 7.797061518 3.710836292) 7644
(10.22972834 12.54350975 26.36218518) 46949
(17.97620945 13.91247342 22.37285715) 40070
(6.301001821 5.898466903 24.78661352) 43187
(7.110846805 9.438623546 4.904545858) 9313
(-11.47590957 1.221388109 10.40754786) 18657
(8.030881088 -5.67212804 12.98997353) 21911
(19.22124728 0.05802863536 20.9296958) 36072
(-6.35609512 -8.134560347 7.111357084) 13404
(6.268934457 -11.15637188 11.33022166) 19893
(7.574754018 -1.656170261 22.03263953) 39452
(5.401302956 -7.239136724 7.697875708) 13454
(-3.215416475 3.723290818 10.30923042) 18749
(-13.12062012 0.4042254829 26.39579738) 46437
(10.1005821 -1.530127108 26.5278502) 46383
(5.926185933 -20.60734521 28.65696497) 49054
(-1.435567249 -4.503828186 16.73304748) 28935
(10.38800189 5.201240827 0.7903286655) 2781
(-0.2032258761 -11.99700295 20.91271042) 35570
(-11.35013437 0.4801640141 1.379279995) 4165
(-10.71517116 -3.455982702 10.49294014) 18448
(3.609322988 -13.3616051 21.05877286) 37222
(11.87195103 0.2839431252 1.716185023) 4188
(10.05858057 -3.274436401 0.09403246471) 2439
(11.96925669 -4.366147898 1.805216625) 3998
(4.063802668 -20.16990708 17.27987221) 30001
(-3.903237613 -11.65154277 13.0056051) 23411
(-12.53288813 3.160746412 4.95332603) 9066
(-3.842843536 7.939014445 11.92878776) 20681
(-11.91093807 -4.442393153 26.29591189) 46245
(-4.134094151 6.165853419 16.47670286) 29362
(2.734468376 16.43914488 13.7911233) 24593
(8.13699982 1.883310815 12.58976842) 22205
(-2.971987008 -7.411339807 28.90418666) 49592
(4.009303894 -9.071921787 17.79211632) 30463
(-6.802718823 12.0790665 18.29238928) 33076
(10.18358137 -0.1029681717 9.636216557) 16917
(-3.650954456 12.62873313 4.776742052) 9407
(4.990268183 -11.32062642 6.659152596) 11711
(-6.919135222 -7.694163981 9.981100658) 16634
(-3.286058142 -0.8430948074 18.08730889) 32555
(-18.68419572 8.692834645 26.16708811) 46752
(-11.35350812 -4.911480828 1.129593224) 3975
(2.239135529 11.49686503 8.197849) 15763
(-2.777543698 -9.548761533 12.41357954) 21732
(11.07135939 -5.341138243 6.778234605) 11940
(20.00038893 7.009026087 18.56398929) 32893
(-2.10709855 -3.362740482 1.558109425) 4022
(17.53371255 -8.204176927 20.49334943) 35714
(20.3186563 -20.1019112 27.79728387) 47337
(-8.982356015 -8.874036602 2.921975286) 5422
(-8.596103929 -5.249446209 9.89330635) 16708
(4.295009312 -3.939037779 14.59030407) 25519
(-11.90841853 -10.28555396 24.26528617) 42529
(-9.060001954 -1.562516566 7.796192515) 13667
(4.651067811 -2.340080309 11.09398843) 20269
(-6.33134552 6.043926182 1.632875063) 4398
(8.300065235 -9.275897828 1.963064279) 3806
(-0.8016657433 -6.732301551 7.28666454) 13486
(8.186345167 5.524656441 11.15606066) 20609
(9.023099182 8.126948256 8.136748951) 15662
(-12.72915074 0.8287205549 0.1846692094) 2568
(8.643649653 1.25038438 15.9001652) 27437
(9.004031703 5.969056893 21.0113089) 37994
(-6.572041365 -10.4263918 2.155746179) 5351
(9.055035961 -4.256772561 19.24856421) 34142
(8.739621644 -9.824771188 7.002680403) 13382
(-3.979204244 5.137239718 13.11024077) 24125
(-3.552517271 10.14960835 8.349470315) 15722
(0.8232522008 16.94079708 19.81002259) 34983
(0.2307095208 -11.05951043 2.749913652) 5323
(17.85272703 -7.74106255 19.91108036) 34024
(-15.50375427 -2.496663744 11.03416363) 20249
(12.02270422 0.5727603397 23.4262216) 41261
(-14.59323315 -9.044757698 18.99497576) 32176
(-4.687719467 20.97715105 26.22059853) 47270
(9.822836672 8.998367396 12.08992024) 22500
(-3.189801604 15.79325942 23.92528297) 41865
(3.050217604 11.00740966 9.596073083) 17360
(-6.626939464 -4.097778617 7.017269883) 13556
(3.180136182 8.017579038 16.63560285) 29454
(11.72208567 -16.28585634 23.2577135) 40568
(-0.3172214367 14.14880314 24.6849323) 43558
(10.91236944 -1.74304944 10.6040869) 18553
(6.991503384 -8.591609826 8.37496639) 15013
(-2.986119959 10.44060765 16.95695439) 29532
(8.982677029 5.40417079 9.767454575) 17143
(2.335870402 6.314252101 17.23488909) 31101
(12.0128949 -2.794373522 25.00923747) 44617
(7.320068915 -8.449898346 24.37569734) 42632
(-6.74825517 -9.96402286 1.231970848) 3791
(5.724467355 3.013789335 11.7970984) 20522
(-17.35605188 1.270732977 20.08001009) 36077
(4.497831878 15.82574196 14.70165202) 26285