/*--------------------------------*- C++ -*----------------------------------*\
| =========                 |                                                 |
| \\      /  F ield         | OpenFOAM: The Open Source CFD Toolbox           |
|  \\    /   O peration     | Version:  v1706                                 |
|   \\  /    A nd           | Web:      www.OpenFOAM.com                      |
|    \\/     M anipulation  |                                                 |
\*---------------------------------------------------------------------------*/
FoamFile
{
    version     2.0;
    format      ascii;
    class       vectorField;
    location    "3.989/lagrangian/dsmc";
    object      U;
}
// * * * * * * * * * * * * * * * * * * * * * * * * * * * * * * * * * * * * * //


68512
(
(-466.821036 -355.4886926 -478.1251561)
(-591.7513356 -390.3627708 1165.970614)
(95.68179514 306.3145189 801.4581778)
(505.6175079 -686.3126738 -138.5969549)
(-20.01533228 623.6201586 1725.541721)
(203.1253594 340.272611 232.4865099)
(117.2226618 454.8898083 -519.0244657)
(957.9794493 878.8797495 244.8027193)
(-34.14449206 1162.321965 1451.670149)
(-593.0178359 -160.1906158 844.5371064)
(-94.46154523 -740.2999462 1153.703309)
(-388.2759603 -767.6428234 450.027496)
(894.4368411 265.280256 -72.41649259)
(1529.949435 -383.6947004 350.3761282)
(-747.0844366 -445.6765172 253.2637301)
(-1089.078205 115.4103892 296.8867114)
(-416.5793113 434.8718625 216.1784465)
(313.6737299 -525.1111454 1585.725938)
(828.5053862 -65.66147908 901.3723721)
(251.366332 334.3379464 890.0896254)
(-59.61859571 174.5287625 1392.167314)
(-181.828152 -502.2682562 620.9631236)
(-628.1886856 589.3601296 546.957144)
(-165.8574098 342.0440595 724.232515)
(-802.3261357 -565.3860973 200.3169188)
(385.5060425 327.7615985 1173.722256)
(523.7647914 853.3760968 645.8118441)
(170.1709669 -434.4711664 1445.910126)
(92.52608356 739.6809034 913.7698564)
(-221.8367763 676.5706769 1447.012456)
(-70.94646297 -874.6685981 398.753857)
(400.9085948 868.9823914 -4.832925671)
(447.1764989 -548.1749627 1.238340266)
(281.4286641 476.7825442 1682.909759)
(-937.1093467 406.4992862 1424.43562)
(-52.08261067 191.4682262 178.5132482)
(-223.242476 -178.574104 -309.8048633)
(-868.8797121 -1681.812369 705.3484117)
(435.7491442 -70.82225063 -395.3918205)
(-585.7216374 -130.3418063 1658.486613)
(111.5099551 -5.182536523 146.8100457)
(1017.068482 -247.6310609 696.4615277)
(-322.42256 -152.4025841 877.0444705)
(-77.45961402 35.77504454 1789.757437)
(-292.9744275 465.1811535 -3268.903655)
(1308.193878 -218.5449074 1256.372953)
(1138.955075 -650.9698547 554.4377963)
(-770.0225889 1126.435208 1014.639784)
(70.62948367 -328.5806719 923.9816093)
(383.8165253 -109.7595529 -758.8184631)
(770.9669162 417.9607182 185.4967486)
(-496.8171872 928.5184336 944.4914893)
(945.6247422 -164.1738368 1502.572766)
(-1029.030527 192.7588459 18.06612154)
(-195.1403599 -1.196643854 617.4233737)
(307.2090031 213.4664984 1099.989208)
(-401.1658682 -332.7524629 406.1588703)
(-741.0912708 524.5891112 192.8605478)
(794.8704384 -525.6463957 640.6008771)
(1176.338127 -140.026612 -351.7034345)
(-1063.668949 -765.5707397 587.717137)
(36.88284852 -175.0879821 1035.052028)
(-526.888341 27.92406614 561.4943653)
(-291.2162388 -359.0292579 654.5797477)
(231.2137627 481.1737071 204.8517101)
(733.6720948 -891.8271849 1644.051014)
(1050.757991 627.8254533 -447.4307134)
(948.6300786 864.3694038 1322.669742)
(-208.4082174 -85.4106208 413.8801706)
(-32.85721648 787.9719745 -1664.140384)
(191.2966071 -673.5934109 748.4232346)
(1344.043 393.6851935 2248.569051)
(-666.7159894 -662.0756196 1471.256581)
(-395.0762528 -108.1166543 470.3452422)
(436.8637505 -411.864298 415.0596944)
(596.1088693 385.5060976 461.1729964)
(138.2290744 -136.9625313 798.0498302)
(-126.8088658 402.4580904 -716.8651736)
(-1117.654507 141.0694027 1962.324065)
(-185.9050769 985.9926504 723.4325658)
(223.0571674 -579.0289325 881.6160212)
(104.6015082 -1083.593676 893.0838835)
(322.0480513 -1357.69527 -1507.507901)
(-588.7096662 -38.51741608 462.6100557)
(871.9581985 162.3478303 -68.9824391)
(-488.6772816 693.4580927 1006.353163)
(356.0511536 440.9573015 -395.972092)
(-341.5477716 1419.037118 -907.4984179)
(-400.9012636 -26.31430126 1155.967218)
(729.998304 -439.4599656 -233.0966059)
(-165.6232396 1004.662329 484.6098498)
(-389.0268113 -1063.054862 549.4586919)
(-741.3094454 -320.610121 720.4663803)
(-409.8848675 304.6555561 251.1210568)
(-1085.514824 274.785553 150.6037377)
(-278.2790842 -45.3658555 526.2611615)
(257.1856254 98.77423575 -1001.052245)
(-456.6938962 -429.6380409 886.9514546)
(-1235.378993 195.454196 660.4194153)
(1327.405318 -110.3708906 685.9483858)
(-331.6714776 1016.468905 -0.5792031361)
(-438.1810356 114.069591 1015.166743)
(327.5539212 91.3959856 1332.217691)
(-38.76637224 -765.7484641 1109.634613)
(1055.526293 -297.0308078 85.09370442)
(66.10432744 -634.4435498 -1197.899976)
(353.1283992 -1110.620769 1589.168185)
(994.7962707 -330.9321186 1379.232455)
(-556.2789877 440.1341974 120.0517692)
(984.910326 36.04388383 404.0623492)
(-454.7270002 822.1759302 -131.7862401)
(758.0280558 938.5191845 -46.45251987)
(171.1642992 872.1161089 559.4135703)
(-751.6417161 -905.5354483 635.2261147)
(214.8281215 -252.2160148 -64.02838008)
(815.267398 -608.0348223 1910.320315)
(-247.1843117 -247.403782 159.6082441)
(438.0763585 47.96160126 1040.011519)
(929.0436375 -989.0417819 2323.81707)
(-833.6807521 -452.1370769 1036.11038)
(-350.5649302 -819.5205292 462.7058767)
(-439.6107116 -65.82997743 330.2090252)
(591.1767433 648.2325918 707.9754692)
(-1465.333558 -111.4064862 790.1610764)
(-476.1862431 2108.064498 622.3282162)
(-475.6606283 134.6389658 390.3638328)
(778.685385 1253.927078 -114.9743879)
(-1051.638462 -615.7779871 320.8924777)
(220.8837963 278.4870722 1844.720297)
(844.8254915 -679.008536 -1082.099065)
(-242.0745644 -734.6787693 2090.624964)
(990.6344305 -824.4721426 682.8796452)
(-186.1459959 -918.6512829 250.6937917)
(142.1577582 -950.9319317 412.323739)
(23.49817111 333.656985 -260.7443635)
(144.2498685 796.630385 877.258475)
(122.1790543 542.6169856 436.2807177)
(-223.7643501 134.7315667 1805.760166)
(199.7472511 -74.81643799 1204.318743)
(162.8191331 -215.3639085 514.8690336)
(-1264.260589 -356.661812 761.9077197)
(726.1885063 17.321103 1439.413616)
(-1066.580161 -196.1521458 917.2563837)
(525.6561608 -736.1778314 -524.2504087)
(802.4481566 1030.505454 490.2795389)
(-307.3139554 446.9587923 175.7605781)
(-732.5972286 1187.85066 -623.6561435)
(-368.1838503 -392.6200509 867.512891)
(-366.839588 1279.085391 1530.311793)
(-1274.455151 -448.7835825 697.7669552)
(1059.454092 -362.658064 -280.7852236)
(386.8963142 418.7963709 1540.090045)
(1159.302865 -362.2673365 920.5350034)
(-441.6738159 -804.7393368 692.6786068)
(-101.3408689 -433.530398 80.71131172)
(56.49697684 755.1593539 583.3440139)
(694.9907317 239.5845724 346.3248229)
(-265.7407488 364.9915729 139.8046592)
(-410.8675606 -277.5975394 -400.0494333)
(1017.139657 426.2442012 367.89672)
(821.3911244 -2015.573278 -676.8381305)
(507.4189453 -1240.677551 -113.7721553)
(-947.140958 236.2007016 1109.492985)
(-312.211645 374.4494646 519.6083571)
(-150.2959196 129.1769779 847.7701878)
(59.8659373 -676.6989716 31.16035818)
(-756.5908359 238.9410523 -134.7556841)
(727.9349809 -867.1305596 437.4160954)
(1073.919378 309.8509596 1634.412656)
(-231.7761584 -698.9248713 437.58149)
(-485.6712293 -569.7358097 365.2798074)
(-58.42586337 549.4527455 30.39296135)
(-240.7409743 936.3974798 491.4701873)
(101.8580756 979.7961524 746.341072)
(-651.0658569 -347.1291479 -322.3099557)
(-378.2985524 751.5850216 -598.1070323)
(-1673.416897 640.1145797 260.1476809)
(990.2828398 -109.0353354 1184.107891)
(98.08833404 -398.918221 1384.941088)
(86.83157837 84.68413213 805.0681126)
(109.1000276 -0.2465988276 730.4877187)
(109.2024689 542.5295723 1993.20933)
(700.5051196 505.5572555 318.7867894)
(-495.9165517 655.0047452 -450.5310686)
(1005.301384 -703.9885376 1347.76764)
(-1529.519379 920.1818741 -1981.491147)
(178.8890301 -55.52102017 423.6163554)
(268.7291882 346.4226528 1053.934846)
(-270.743674 225.4954868 1187.188235)
(215.0940616 -1808.055657 601.3344451)
(-187.6456476 415.6108676 547.411813)
(430.3842759 -685.2116792 550.0137221)
(-749.2060838 4.157638922 1118.615114)
(104.1995431 342.4510727 774.580717)
(-869.569251 329.3012333 1187.077013)
(123.9798188 -313.1772453 245.9780753)
(344.3479902 774.8033199 806.9140809)
(-485.079682 11.66055362 1141.905002)
(837.6085761 -519.1288261 321.9956387)
(-749.6288294 628.079106 1463.076675)
(-209.4449537 59.5373894 127.0931831)
(-47.43017031 165.9671715 260.059173)
(-60.37525672 423.9643623 644.2655117)
(645.248532 1087.298357 142.9751402)
(543.7198262 -922.6706725 1101.221685)
(314.4901873 -545.8304071 569.9960538)
(618.0026015 63.10781486 214.4693659)
(-605.7139765 -633.4580885 -35.94252627)
(459.3875503 773.0548208 1096.487303)
(94.30969648 -615.712634 487.0783652)
(395.298544 424.2557556 536.9084268)
(-192.4312134 812.8573473 1009.769268)
(-707.4033657 482.2004608 1061.527691)
(1160.143328 774.5062524 632.8396151)
(-826.9611189 -690.3414725 926.2929786)
(687.6334572 -236.9862158 621.9640438)
(-640.7216184 -575.1828452 853.0345055)
(358.5517381 -243.9924646 -878.066567)
(-907.3522189 207.0186014 -958.9421132)
(-256.0378177 1269.35082 825.0061089)
(-762.119989 -957.2295888 126.0637937)
(-759.0180394 -438.765341 313.0451323)
(-41.72464378 844.8666857 216.5107259)
(-1427.413712 417.1984894 166.1571676)
(1926.932689 792.6010076 1144.387685)
(389.8897532 917.5889563 546.3403987)
(149.3201919 -138.4960408 1530.553906)
(-926.9389132 -251.7203369 1355.673)
(578.4096003 3.244359606 1994.575538)
(-593.9006264 1661.215159 193.3815572)
(-235.3895727 -673.5775929 42.89038051)
(970.8307685 -147.9562821 780.8290415)
(-411.0635524 -443.1598422 836.7097786)
(287.375719 -232.4364335 311.0001814)
(-340.7822376 439.4986624 679.5417439)
(178.0183117 653.8603092 97.16262376)
(-741.8594753 926.5473015 -638.4091479)
(-500.8492552 96.40356128 109.7200193)
(-197.9565389 1319.32565 736.4831193)
(-52.81746101 -949.6136259 1462.013328)
(92.34784203 -29.23956577 905.3302153)
(-21.78143658 107.4036216 1612.211469)
(434.8197612 124.7179761 733.6271078)
(920.6603602 -638.2391716 177.8348274)
(-132.8733959 87.67168098 1327.814257)
(-785.8525563 54.48351918 269.4711063)
(-167.852253 -469.6090986 375.4177352)
(-16.80660585 -267.3898901 1164.046991)
(170.8726115 962.8576508 425.0269245)
(429.1654564 591.3844295 -811.7616325)
(172.3517523 574.8719713 909.2441929)
(-233.3214451 -1.229689165 562.9245323)
(-769.5082866 76.52212049 669.534788)
(30.50579505 85.17184801 983.8061418)
(-243.9899837 -575.0257868 755.462116)
(-1028.81066 -1473.811923 1186.011754)
(-135.5252867 237.9060995 1274.538203)
(119.0833912 -229.816334 680.1278112)
(-256.7991719 112.3433824 523.425551)
(-90.59629065 367.6686036 1375.478547)
(651.1300653 -6.026537299 1350.497011)
(506.9179174 349.5387439 219.4354376)
(-290.0610146 261.5439957 554.2371618)
(-640.3229 568.9509362 760.1471389)
(-293.9109651 -1206.072933 1312.593125)
(-222.500374 -323.6107068 172.0649184)
(-925.9438061 36.92100802 1001.381219)
(-491.5935474 278.8969618 1165.035862)
(1607.148885 -437.1004029 353.1758205)
(273.1825202 130.6768115 775.772698)
(-597.8364873 91.41093294 855.1839671)
(290.9807501 -422.5571191 666.9378407)
(1217.34741 -34.73021179 1088.450137)
(692.9057054 92.41689381 319.5628546)
(958.9261907 319.4426722 758.3217593)
(-424.427528 -463.825644 596.6418006)
(-245.7719695 -12.68096111 1227.00628)
(-375.040497 193.3926254 461.0617343)
(-558.9524201 -260.4066125 1624.604377)
(-326.8839104 318.244167 907.3830952)
(-89.46168444 -105.3084374 441.6570632)
(-53.23360987 481.5502658 1097.075422)
(-843.1730625 -397.3558551 1731.174173)
(-435.7151732 -494.0509392 -565.9100824)
(1169.980561 1666.183325 359.7146378)
(-64.57677238 -473.7507396 228.6638745)
(-198.1917697 -539.357626 -1.330699041)
(187.4939775 -699.0777052 1483.465529)
(-496.2894824 -217.290828 522.1256232)
(1011.706821 -539.6767796 130.3146204)
(772.6303233 -274.8449692 729.6606483)
(-565.5527706 -216.2209591 274.7064143)
(247.0490784 -997.2621658 518.954511)
(1033.818486 -310.9802195 715.9873966)
(153.4833003 233.889751 312.036263)
(-480.8104402 31.29045021 1106.658211)
(-164.7596661 -52.60509385 434.9419478)
(-210.8422478 1108.31478 561.8820452)
(-144.8635098 342.1706315 -493.2446936)
(-940.4005285 -171.5964337 91.80555378)
(208.7370019 -379.4885344 610.0397382)
(-33.57003953 516.3606507 1003.897257)
(-146.1397294 224.5419061 741.6786599)
(-315.5108258 -116.1408422 491.0322679)
(-946.7260607 -29.8912883 494.4647953)
(-340.577623 87.4699495 1585.719007)
(45.81003744 248.1552413 1328.881738)
(-225.7158677 -415.8147484 318.7800987)
(39.23274506 -305.3320235 890.6734956)
(189.7365707 447.9813488 28.12636653)
(195.4875911 -334.4648524 -73.97914625)
(-114.1744523 865.9942985 96.9577826)
(418.8062722 784.8288529 755.0038322)
(-309.3850954 -766.9217452 527.2996762)
(-554.4709976 507.43459 296.0423921)
(331.5290312 -784.4618148 1329.967958)
(316.8752561 -448.0286366 1030.981058)
(-324.0174455 -1751.868345 1062.024733)
(359.345646 -295.0459999 37.42141484)
(-1025.203549 695.1644327 389.9802608)
(440.8412874 738.8217579 -102.7988897)
(-334.0243759 -934.543613 2015.366332)
(-724.5349014 1310.766297 1401.985201)
(-847.4539058 449.4216308 1232.105105)
(-647.0919562 322.9768058 368.1784945)
(374.2391168 378.4617701 1105.370229)
(528.5960379 -340.404322 135.3990803)
(605.8427236 -216.2917332 -252.6397337)
(-691.577233 1408.424384 917.5424455)
(-727.7065306 167.6468044 987.1746154)
(1171.014275 -108.4576736 581.9032153)
(-334.3931448 386.8436482 1726.671194)
(86.09671677 -44.00014364 724.2729512)
(-67.63833434 -758.2564768 1379.488345)
(916.8294732 -349.8591691 744.5919096)
(-232.2647089 -349.1055579 1118.982704)
(251.9537361 148.1211714 641.1521268)
(249.8435072 -457.5088049 1352.113932)
(78.28233604 463.7599504 439.3741983)
(-137.5105012 -682.5638877 10.04719387)
(-1525.935637 -1682.89026 117.794717)
(400.3231011 114.9235165 503.9503688)
(-1101.721837 -1052.264055 466.3848251)
(-14.70767424 -149.1402463 172.2394292)
(-994.4695687 517.3232498 -17.08528751)
(741.7765118 838.2484368 233.5492524)
(261.30925 -518.0449759 1226.435205)
(-19.75082626 -429.8296868 839.5339572)
(-59.26549151 -344.856744 1530.079855)
(-286.733181 -470.6736178 273.196195)
(-456.4004356 -232.7519952 714.8580696)
(38.12296169 108.3985584 -65.18508584)
(47.68929074 -96.69818893 -379.7580235)
(-155.3622524 -55.73547403 -379.1689206)
(-235.8297658 -589.5240587 366.6617334)
(29.94574878 1079.182945 1238.393215)
(98.80778055 22.91254231 904.6755708)
(568.5357926 431.1285456 1219.913108)
(-1586.276488 804.2779753 1261.703896)
(240.0022475 394.0570095 915.695831)
(77.39579345 629.6455505 882.6697433)
(274.516385 -58.95323237 -283.3099755)
(-142.3740594 1571.443672 302.8705624)
(330.6150725 -250.662511 1178.043047)
(42.59892533 -657.775725 766.4979831)
(-81.04821004 539.4271669 357.4844951)
(325.6880549 -276.6996385 382.4652118)
(103.9124302 -494.3225102 186.868745)
(-286.3890588 -483.2566063 768.8758463)
(-619.3695726 -396.0511352 801.2367093)
(-573.7732399 -556.52256 147.6627249)
(98.87399689 -1632.045583 1205.777625)
(-84.62264218 -813.300359 258.5679717)
(787.4406966 63.26668167 -219.8670765)
(-694.1485127 673.117956 1150.225938)
(-268.5609774 566.587714 811.2606068)
(467.4599207 -449.7017963 628.4928773)
(-58.14806582 -861.8847339 925.7623833)
(-880.0886987 -552.1135664 1070.906249)
(124.3421271 728.8442641 997.6421537)
(-465.2055237 -275.0162182 -169.5187012)
(279.2516118 404.0343136 535.8122141)
(200.5682554 -460.4626816 1200.091133)
(823.5000528 225.6028265 -452.5937227)
(258.9373025 197.1815362 1608.232952)
(-1041.716267 72.26347747 1323.507473)
(-1216.272783 665.0281908 447.5801324)
(-522.905258 221.7803309 317.1222491)
(-119.2022451 -1205.675245 1088.156302)
(-143.2667821 -323.1821101 1203.080727)
(598.4436165 254.3661493 859.6302352)
(342.5988526 -286.2967053 260.7797068)
(77.10439459 281.2561503 983.0073195)
(-20.53213692 -499.8451039 55.45155451)
(-324.4646538 506.4739776 81.82852334)
(889.6036325 890.1442104 -169.2346059)
(198.7224664 371.3429273 -1056.688533)
(-290.081693 67.84310058 622.145432)
(574.0058498 507.3592884 580.8527403)
(-773.3425382 248.9087111 756.6066164)
(-448.1796038 246.1951058 -351.1470086)
(-789.7185294 -165.3354196 1069.125288)
(-1056.947549 84.77332901 313.6793407)
(-48.60036458 -9.536110328 1577.867651)
(200.8987011 598.9789472 429.8451702)
(291.092117 -227.5375129 76.97273108)
(-1080.655162 843.2368039 311.849493)
(-37.72780399 340.3301326 584.799455)
(-87.68971898 719.5415651 -31.5209062)
(-367.4668683 537.346358 4.484930472)
(137.6625706 361.0181286 82.59656861)
(940.4250336 -566.3001975 84.37825303)
(-321.1068719 97.74059257 1494.305392)
(-1492.374227 -225.4209801 614.3593823)
(-214.4602317 -533.831784 701.42425)
(19.95382357 867.2691825 783.8010998)
(-629.632438 -217.1816701 876.8873262)
(166.5754494 -22.26036465 -27.44557558)
(556.1867632 2274.63168 -1333.165103)
(1180.71267 9.135726214 1313.827349)
(40.86472079 298.1423446 773.845512)
(-372.6733061 331.842915 1450.981459)
(797.0566335 -457.6379369 -971.7565463)
(-509.0426994 -89.21514854 108.2127297)
(438.8710284 198.1511731 879.8775514)
(410.769768 -1057.790745 892.4292825)
(-396.4458282 528.8643014 440.6333797)
(1219.980904 371.4029939 -53.77762864)
(-374.5399564 -874.193777 576.2328534)
(-909.1395044 -549.9689249 219.3176698)
(5.069866405 -465.2692097 959.1519043)
(-27.49721592 -609.4095905 799.8516533)
(-815.7312412 -1354.539539 887.60525)
(-669.1994986 345.0354959 159.7137268)
(626.6272299 208.7148077 177.0471564)
(706.4155061 -114.2504378 -1157.347519)
(-642.9011402 -687.7954613 1133.945047)
(-378.7029321 -206.7598334 736.3534677)
(777.4252537 -452.6108063 321.6849046)
(76.03120667 -607.4567242 1132.756795)
(290.4460142 -161.7686821 -312.1892463)
(63.61290931 -205.3997529 503.4273329)
(587.2563137 -840.9279151 889.9250241)
(467.4709599 444.3188184 158.8762098)
(802.7958924 106.0236944 677.9154232)
(496.2501012 -173.0568256 -493.18623)
(1064.647547 182.0542612 249.5653992)
(1464.396185 -1128.539564 335.9157045)
(-14.85019188 146.3721141 1878.017517)
(-244.482019 -134.2116491 512.9007767)
(479.4992253 816.5693977 734.8682629)
(-886.761272 654.5238989 735.028092)
(712.0222874 357.4647051 -425.3278292)
(-422.1928318 209.9182973 1693.527655)
(1130.339715 624.568951 287.7344665)
(-313.6051653 -95.19668066 1440.552603)
(1532.972502 1637.670644 2287.719755)
(692.2332262 811.9166553 877.7204326)
(141.779388 -237.5309804 658.6390258)
(419.9127967 -87.70918269 1196.608314)
(-855.6233345 114.9295652 420.7221327)
(402.7706101 183.8869866 467.5622967)
(199.5579428 -871.6399032 1231.226131)
(407.0940554 -486.9546443 1714.349143)
(-906.4992842 408.9436456 1472.995538)
(182.4151318 -657.2015469 988.7824206)
(503.5340681 572.229098 401.144835)
(341.8675945 183.2297406 295.6120119)
(-74.03674556 -246.7551455 590.08321)
(-108.7869849 496.7031869 301.8394474)
(134.3939012 -664.0591728 -1047.612156)
(83.34344726 -654.8623271 116.271306)
(197.3519319 122.0535306 324.5639521)
(-965.7588183 -1043.489513 831.3442462)
(-260.5317945 -76.47351808 1072.45487)
(-450.4762557 717.6354644 1602.494014)
(-413.5001725 -466.7915598 187.4555056)
(188.1370498 -782.7537202 -877.4547027)
(-1348.578625 121.2735238 -55.38661115)
(553.0420702 -167.224703 -182.9287769)
(-645.7690507 -39.27321206 699.9733311)
(-642.3158099 -604.2423899 721.6136649)
(195.5337134 -490.8994344 734.8378045)
(-971.1478476 -511.107094 592.9623758)
(295.2750089 -547.8070221 2063.136999)
(-470.6811233 -779.7364778 -359.2066681)
(-161.0547224 -142.2572269 152.2673515)
(-396.9217443 -856.8858016 -787.625235)
(-790.1818731 -154.875041 1031.62082)
(-135.7412469 106.3155843 593.1772504)
(775.5561619 323.4455861 732.974206)
(1277.633004 -68.22529867 1646.563656)
(933.7328776 347.1551402 740.7089382)
(655.233212 719.0695955 1438.233077)
(726.3105107 884.0468215 749.0765775)
(-293.4331943 441.0129822 1353.787622)
(-353.7156047 -959.4218581 1118.48555)
(349.0297055 -87.2203589 661.9418414)
(-215.731293 -927.7476828 872.2831362)
(502.4094479 -725.7437447 707.4070426)
(-284.2127949 -473.3456533 677.9297725)
(-107.655768 32.78567391 95.74396261)
(-13.36595408 279.0005668 444.9216764)
(516.3008155 -877.5793526 -772.9173101)
(39.21745058 151.7685101 954.3519628)
(-371.4394037 -132.9901331 817.0811983)
(439.2623734 -66.84472659 1114.626962)
(77.36299698 524.6794223 -160.1463888)
(-868.2526346 591.029429 1091.309888)
(-343.6856393 85.73988228 871.9587272)
(464.9581192 -479.8932374 -205.1431166)
(-469.2356043 73.04790657 246.7986767)
(113.700901 -802.7906888 514.5537912)
(256.5588402 -251.4909391 887.2767717)
(-215.8403715 -728.3310351 551.5335799)
(207.0089051 572.6928873 -45.66561175)
(-301.7766518 931.960097 971.907939)
(-292.5447493 -367.5003149 260.2074811)
(-941.0551493 880.3666963 -732.2472627)
(-36.23944037 925.6677126 1266.53281)
(-718.9479116 -153.6018607 1103.277559)
(351.8352504 -112.2223772 1171.899162)
(22.69593141 -594.2669318 -307.1296309)
(-420.9406034 -633.3523729 1185.29563)
(-135.6830809 476.8103315 195.8477521)
(1633.415256 -338.5933662 1272.243529)
(-337.7787662 555.7124867 35.00242605)
(-1097.032899 -733.7022464 1016.727968)
(285.4984054 -497.9078766 66.46261964)
(-1001.666233 144.7698504 -435.3556984)
(873.2123627 275.6591045 838.0798156)
(-90.14614016 -648.4587159 -325.9680802)
(365.7496048 145.8293993 179.9445098)
(470.3870822 537.1353559 587.7983267)
(153.6240197 -768.6166683 880.2949289)
(54.46425606 980.2587108 1026.671944)
(100.1503673 459.4912121 1143.783558)
(-340.5949675 -1259.253589 1272.510922)
(-983.4670104 906.8468119 -10.77496509)
(228.3849019 -247.5613947 -212.2665401)
(-134.1167969 -499.9978349 749.5202193)
(-88.16640317 109.0845733 796.1516062)
(-970.5307451 -408.3549816 413.9308333)
(112.1021271 169.226482 -344.3237711)
(256.4161964 -969.2011588 537.0067562)
(-146.6100557 152.083526 -261.9465467)
(-72.96455782 -9.719720536 1072.91285)
(-809.573948 -74.40044223 467.4280775)
(-3.050969124 -138.6114065 -27.43272701)
(895.9112083 -255.1554717 899.7597296)
(731.4360557 175.8509319 431.9073221)
(-275.7347527 -224.4879547 236.5584728)
(-266.9590122 -3.382231794 -189.6012482)
(-142.9606521 -32.31173933 -324.2831422)
(219.0962801 -854.8042213 470.4236266)
(87.85554061 -66.75491484 1458.993554)
(237.9321898 -103.5397844 995.6506445)
(-762.8415368 111.5381149 922.5773583)
(605.7239531 -415.1047448 1050.88329)
(-428.2275683 1149.659386 58.37082958)
(-194.2966128 174.9616817 304.6815012)
(612.0394161 346.1791681 1808.609807)
(625.7552811 1035.809759 1100.506275)
(-245.2136682 18.02586941 1126.316302)
(-210.0683009 234.417303 38.50787603)
(-166.2578292 -172.0064456 -192.707472)
(181.7983566 318.4809425 690.4334858)
(1658.910303 -502.9727556 253.7812849)
(97.72510585 204.5043485 813.9133243)
(787.8128186 -184.9867243 1043.720769)
(-460.9838208 506.8307475 1192.291223)
(-426.471636 -523.6421469 992.1802882)
(888.8112688 -633.7298275 901.0332885)
(-675.9061549 -395.7555244 1106.844655)
(429.2539559 -411.3561501 1268.078111)
(221.8851929 -1063.323973 1095.045012)
(842.8005131 -284.0947999 955.622279)
(70.64426585 -1195.519903 -322.8847698)
(-123.9655669 -576.8598973 10.7287521)
(431.2344727 -1002.659334 1.980729748)
(597.0050065 -719.420272 -85.64311589)
(691.6622177 -473.1844836 1160.734762)
(-344.1829876 21.9450307 244.9803455)
(298.1642398 -1449.858015 -222.3174666)
(631.0373629 302.1780769 170.000087)
(48.76255334 -771.4570574 -119.293715)
(-416.5236853 -28.67565105 739.0782627)
(-537.0487134 -105.082286 543.3630877)
(157.8406083 -701.5907995 980.5335602)
(-385.3583601 -23.16150993 1272.866015)
(338.4180792 660.7909411 466.4127091)
(423.906278 571.5755628 178.8009942)
(850.6092842 234.7481306 777.8932298)
(274.2168244 -310.0317733 1164.174887)
(-409.8122138 139.9044224 917.3131969)
(64.37097658 1479.176115 762.306559)
(-1236.172247 -328.248013 -65.60017802)
(-331.6094284 -205.0789123 633.1302567)
(955.1708357 1231.350691 1682.861333)
(644.5330995 296.6020966 1055.049956)
(-172.1782954 -655.8271482 -459.5682373)
(-517.609292 430.5508358 171.4003938)
(889.1817477 629.3029075 -561.4047981)
(-535.3860473 236.4448971 -36.75510493)
(902.9341194 -136.5457548 1062.799903)
(760.7403658 -739.9717075 -1115.216338)
(922.1340584 698.1926545 625.5569986)
(-1597.277392 -2071.365509 -1914.831253)
(979.4336288 -356.9365728 923.9886105)
(494.8794941 -809.0011389 507.9670722)
(-267.8943631 284.4049027 -928.5952942)
(-8.816870901 281.70686 1361.068656)
(-531.6893994 35.3247768 510.2117257)
(-418.2274356 -1105.204353 776.5474851)
(416.5237472 -334.8588067 644.0931985)
(-268.8084907 6.930847147 -26.24846851)
(-173.7300871 -668.7189848 -79.48077334)
(-312.132894 -160.2974423 301.8032648)
(-41.98890396 401.6751958 1660.832465)
(-520.5898428 567.6361325 360.9102616)
(-116.7529997 -66.49028121 -599.6043857)
(707.5992799 -42.40968352 -235.054014)
(678.2707669 -520.7956539 943.2426973)
(-516.5049856 313.9650462 913.9881943)
(229.3233624 273.4253021 -351.9658897)
(846.4902316 134.6634057 756.5285066)
(378.1189469 -257.6085463 35.11580481)
(-457.9148444 -193.4844667 116.6467772)
(644.1167582 190.6198948 795.1422645)
(542.8643841 467.145183 916.2505318)
(-322.1572302 -189.4328295 -492.6390489)
(618.6799513 -126.5031279 615.9569014)
(-727.9017539 554.2170492 -5.019136303)
(404.8478976 237.2956553 496.9583521)
(-973.8477205 -1007.341221 664.5781925)
(-95.35740622 1024.029822 1098.118522)
(546.7828438 293.828588 1560.154921)
(-271.7131812 751.1392785 820.3282598)
(1351.953618 9.611868328 723.8708534)
(1018.688071 468.1194441 1070.030511)
(69.34385399 -131.4773265 708.9332369)
(368.9462921 -117.782984 373.1119996)
(650.7581982 425.7541803 1129.220285)
(1100.146252 -595.4987057 530.6990731)
(-22.64295024 722.1493839 315.4567389)
(-517.8938264 38.87763387 408.226915)
(74.73854469 -220.1450597 548.7114262)
(117.5917067 -115.791044 695.753669)
(711.2141051 630.1391006 1082.724387)
(445.3134686 48.64755149 337.6459846)
(115.5623329 530.0387179 126.1497834)
(-141.0442762 41.94351975 214.2332624)
(-289.4466505 -192.2773761 370.4644204)
(682.2957894 572.6984277 852.0779521)
(172.2625024 -20.38214864 1293.583491)
(-183.9028774 -144.3424244 886.5673802)
(-1022.761165 -1087.223878 1046.435375)
(609.9143864 40.09796705 1095.452189)
(-1212.226025 -1464.861839 1078.405475)
(110.3818732 339.9291317 386.7735261)
(-846.5267126 94.40946487 13.42989323)
(271.8141361 167.5922504 1357.200032)
(531.0580023 -152.0514243 421.5045614)
(-700.3514294 106.1844829 -369.0736903)
(453.5137442 522.0759095 1058.867848)
(459.1832432 542.9877241 1114.211136)
(561.1251084 -787.3724075 203.9458409)
(-329.0780106 360.0745301 -133.0935706)
(-61.7432302 -39.14454496 887.5700961)
(666.2556225 -1021.390993 106.3059722)
(-1101.212248 604.6393337 920.3068588)
(551.4280394 -515.3034462 1821.754593)
(262.9828739 59.30062359 1278.9819)
(-1847.255854 141.4616989 810.8145444)
(657.5747081 459.2237696 151.3739143)
(658.9116257 -66.7042278 743.8252035)
(-681.3808825 -349.281356 1776.861826)
(-663.8201921 138.598656 126.8700498)
(-164.3941419 567.7943453 793.0725658)
(113.9742213 -129.4372003 665.0287625)
(177.5341954 315.6882018 975.8175392)
(-632.6791527 937.6552403 -339.2611671)
(153.4034519 -181.0563947 497.797152)
(1162.423623 -335.5249771 540.4214767)
(-481.6496122 33.58527803 1213.058015)
(-254.9005784 156.4146205 -89.22171353)
(-314.3103446 -29.88737932 1340.664455)
(-950.7238845 423.3243612 420.6665583)
(751.0970194 -88.42117721 -277.4532037)
(411.4378669 628.8621004 307.5898045)
(762.9743304 -1402.361217 88.53915007)
(-291.720331 696.734751 895.1101167)
(561.0385603 1363.936822 -671.3190965)
(-20.40425704 292.5239732 882.7271144)
(-885.8903737 -726.6659363 -668.7994714)
(-364.0630134 650.9494764 700.1232262)
(-507.4745667 -216.6519443 960.3581901)
(-27.20661151 -519.1169671 -388.9537527)
(483.8596403 271.7852722 455.1296144)
(-767.1875663 510.8926866 1352.822776)
(-387.7250185 -281.9688353 181.1733368)
(442.6883565 -433.291945 488.4134192)
(611.332872 90.9952567 407.5435387)
(-701.1229476 175.6040836 1515.253494)
(-763.4525749 549.9579633 1485.674472)
(-113.4771875 -221.9819706 -421.3540841)
(-769.9320278 -43.15702306 653.5827923)
(-218.4716975 -730.4434282 1710.669281)
(781.0736036 493.1217954 1148.828446)
(123.6438582 943.5690436 -368.4016931)
(55.7023483 853.6410475 395.8102542)
(918.6881318 -205.176703 672.1941187)
(-305.6732261 -92.76122381 1590.231586)
(-205.1478904 -167.2527367 1606.13753)
(767.5813006 -662.0613401 455.4686618)
(-1001.152921 -331.4578716 -428.8794673)
(463.5234487 924.9897268 -472.5803009)
(416.7551226 77.80411679 894.4936379)
(129.3488517 -121.2922408 725.8352722)
(21.57885286 159.8086489 662.0449623)
(409.1475521 125.1941939 1011.784967)
(-884.6701591 210.3810671 575.4177381)
(846.757712 -905.9670148 503.5632691)
(671.2317853 319.3535139 418.152618)
(244.342073 -1.660788008 427.6682557)
(146.3418422 30.34634704 -273.9014598)
(-1394.419183 601.9061992 397.121281)
(411.6912562 184.399232 713.2188035)
(711.2474401 -980.96817 -2766.136904)
(160.3404581 -447.1889121 281.7859138)
(0.3412420491 606.2034892 2.562704025)
(-442.9121878 -687.9722928 -427.9913348)
(36.76291041 -377.9281262 240.8445486)
(-333.4289911 -503.7783666 466.255923)
(278.7851384 -269.2412788 828.2637165)
(978.0101032 449.2561863 622.8539273)
(81.54088259 418.3242972 1063.50793)
(109.6658886 -394.6287172 912.6286739)
(457.807694 -640.7516533 842.8165551)
(1460.601333 -1285.533766 770.137396)
(575.364023 848.054642 673.4754186)
(137.9119331 927.2964763 1234.222059)
(557.2410766 -461.0469026 650.1091775)
(-413.9423683 -103.0724184 2470.309322)
(251.4079884 73.81190374 500.1447877)
(-1007.563556 2129.301788 391.3465464)
(-412.8982392 -618.4769329 514.4150119)
(-543.8816681 188.0302998 1302.663697)
(475.9620341 219.0737926 798.6023113)
(441.2476632 754.1399465 652.0164411)
(707.1503877 -749.9895492 -123.5898259)